[Molden Format]
made by Quiqbox

[Atoms] (AU)
X    1    X         -0.60000        -0.60000        -0.60000
X    2    X         -0.60000        -0.60000         0.60000
X    3    X         -0.60000         0.60000        -0.60000
X    4    X         -0.60000         0.60000         0.60000
X    5    X          0.60000        -0.60000        -0.60000
X    6    X          0.60000        -0.60000         0.60000
X    7    X          0.60000         0.60000        -0.60000
X    8    X          0.60000         0.60000         0.60000
H    9    1          0.86644         0.00000         0.00000
F    10   9         -0.86644         0.00000         0.00000

[GTO]
1 0
S    3   1.0
         3.425250914               0.1543289673
         0.6239137298              0.5353281423
         0.168855404               0.4446345422

2 0
S    3   1.0
         3.425250914               0.1543289673
         0.6239137298              0.5353281423
         0.168855404               0.4446345422

3 0
S    3   1.0
         3.425250914               0.1543289673
         0.6239137298              0.5353281423
         0.168855404               0.4446345422

4 0
S    3   1.0
         3.425250914               0.1543289673
         0.6239137298              0.5353281423
         0.168855404               0.4446345422

5 0
S    3   1.0
         3.425250914               0.1543289673
         0.6239137298              0.5353281423
         0.168855404               0.4446345422

6 0
S    3   1.0
         3.425250914               0.1543289673
         0.6239137298              0.5353281423
         0.168855404               0.4446345422

7 0
S    3   1.0
         3.425250914               0.1543289673
         0.6239137298              0.5353281423
         0.168855404               0.4446345422

8 0
S    3   1.0
         3.425250914               0.1543289673
         0.6239137298              0.5353281423
         0.168855404               0.4446345422

[MO]
Sym=   A
Ene=  -3.56838
Spin=  Alpha
Occup= 1
   1         0.38587
   2         0.38586
   3         0.38586
   4         0.38585
   5        -0.15275
   6        -0.15274
   7        -0.15274
   8        -0.15274
Sym=   A
Ene=  -1.10497
Spin=  Alpha
Occup= 1
   1         1.16551
   2        -0.01024
   3         0.01021
   4        -1.16546
   5        -0.16644
   6         0.00146
   7        -0.00146
   8         0.16640
Sym=   A
Ene=  -1.10497
Spin=  Alpha
Occup= 1
   1         0.01022
   2         1.16549
   3        -1.16548
   4        -0.01023
   5        -0.00146
   6        -0.16642
   7         0.16642
   8         0.00146
Sym=   A
Ene=  -0.36624
Spin=  Alpha
Occup= 1
   1         0.21393
   2         0.21398
   3         0.21399
   4         0.21404
   5        -0.41390
   6        -0.41393
   7        -0.41395
   8        -0.41398
Sym=   A
Ene=   0.61544
Spin=  Alpha
Occup= 1
   1         1.45627
   2        -1.45619
   3        -1.45618
   4         1.45609
   5         0.20801
   6        -0.20818
   7        -0.20820
   8         0.20837
Sym=   A
Ene=   1.51913
Spin=  Alpha
Occup= 0
   1         0.00023
   2         0.78867
   3        -0.78869
   4        -0.00020
   5        -0.00038
   6        -1.39742
   7         1.39742
   8         0.00037
Sym=   A
Ene=   1.51913
Spin=  Alpha
Occup= 0
   1         0.78848
   2         0.00000
   3         0.00043
   4        -0.78889
   5        -1.39742
   6         0.00036
   7        -0.00039
   8         1.39742
Sym=   A
Ene=   3.58338
Spin=  Alpha
Occup= 0
   1         1.10357
   2        -1.10356
   3        -1.10356
   4         1.10356
   5        -1.81523
   6         1.81521
   7         1.81520
   8        -1.81518
Sym=   A
Ene=  -3.56838
Spin=  Beta
Occup= 1
   1         0.38586
   2         0.38586
   3         0.38586
   4         0.38586
   5        -0.15274
   6        -0.15274
   7        -0.15274
   8        -0.15274
Sym=   A
Ene=  -1.10497
Spin=  Beta
Occup= 1
   1         0.58250
   2         1.00953
   3        -1.00952
   4        -0.58251
   5        -0.08318
   6        -0.14415
   7         0.14415
   8         0.08317
Sym=   A
Ene=  -1.10497
Spin=  Beta
Occup= 1
   1         1.00952
   2        -0.58250
   3         0.58251
   4        -1.00952
   5        -0.14415
   6         0.08317
   7        -0.08318
   8         0.14414
Sym=   A
Ene=  -0.36625
Spin=  Beta
Occup= 1
   1         0.21395
   2         0.21400
   3         0.21398
   4         0.21403
   5        -0.41389
   6        -0.41395
   7        -0.41393
   8        -0.41399
Sym=   A
Ene=   0.61544
Spin=  Beta
Occup= 1
   1         1.45618
   2        -1.45618
   3        -1.45617
   4         1.45617
   5         0.20821
   6        -0.20820
   7        -0.20821
   8         0.20820
Sym=   A
Ene=   1.51913
Spin=  Beta
Occup= 0
   1         0.78866
   2        -0.00500
   3         0.00504
   4        -0.78868
   5        -1.39737
   6         0.00885
   7        -0.00895
   8         1.39741
Sym=   A
Ene=   1.51913
Spin=  Beta
Occup= 0
   1         0.00502
   2         0.78867
   3        -0.78867
   4        -0.00502
   5        -0.00889
   6        -1.39739
   7         1.39739
   8         0.00891
Sym=   A
Ene=   3.58338
Spin=  Beta
Occup= 0
   1         1.10358
   2        -1.10357
   3        -1.10357
   4         1.10356
   5        -1.81523
   6         1.81520
   7         1.81521
   8        -1.81518
