[Molden Format]
made by Quiqbox

[Atoms] (AU)
X    1    X         -0.6          -0.6          -0.6
X    2    X         -0.6          -0.6           0.6
X    3    X         -0.6           0.6          -0.6
X    4    X         -0.6           0.6           0.6
X    5    X          0.6          -0.6          -0.6
X    6    X          0.6          -0.6           0.6
X    7    X          0.6           0.6          -0.6
X    8    X          0.6           0.6           0.6
H    9    1          0.7001        0.0           0.0
H    10   1         -0.7001        0.0           0.0

[GTO]
1 0
S    2   1.0
         1.309756377                   0.4301284983
         0.2331359749                  0.6789135305

2 0
S    2   1.0
         1.309756377                   0.4301284983
         0.2331359749                  0.6789135305

3 0
S    2   1.0
         1.309756377                   0.4301284983
         0.2331359749                  0.6789135305

4 0
S    2   1.0
         1.309756377                   0.4301284983
         0.2331359749                  0.6789135305

5 0
S    2   1.0
         1.309756377                   0.4301284983
         0.2331359749                  0.6789135305

6 0
S    2   1.0
         1.309756377                   0.4301284983
         0.2331359749                  0.6789135305

7 0
S    2   1.0
         1.309756377                   0.4301284983
         0.2331359749                  0.6789135305

8 0
S    2   1.0
         1.309756377                   0.4301284983
         0.2331359749                  0.6789135305

[MO]
Sym=   A
Ene=  -0.5423
Spin=  Alpha
Occup= 2
   1         0.1536
   2         0.1536
   3         0.1536
   4         0.1536
   5         0.1536
   6         0.1536
   7         0.1536
   8         0.1536
Sym=   A
Ene=   0.5786
Spin=  Alpha
Occup= 0
   1         0.4138
   2         0.4138
   3         0.4138
   4         0.4138
   5        -0.4138
   6        -0.4138
   7        -0.4138
   8        -0.4138
Sym=   A
Ene=   0.7924
Spin=  Alpha
Occup= 0
   1         0.4299
   2         0.397
   3        -0.397
   4        -0.4299
   5         0.4299
   6         0.397
   7        -0.397
   8        -0.4299
Sym=   A
Ene=   0.7924
Spin=  Alpha
Occup= 0
   1         0.397
   2        -0.4299
   3         0.4299
   4        -0.397
   5         0.397
   6        -0.4299
   7         0.4299
   8        -0.397
Sym=   A
Ene=   2.0729
Spin=  Alpha
Occup= 0
   1         0.7864
   2        -1.001
   3         1.001
   4        -0.7864
   5        -0.7864
   6         1.001
   7        -1.001
   8         0.7864
Sym=   A
Ene=   2.0729
Spin=  Alpha
Occup= 0
   1         1.001
   2         0.7864
   3        -0.7864
   4        -1.001
   5        -1.001
   6        -0.7864
   7         0.7864
   8         1.001
Sym=   A
Ene=   2.181
Spin=  Alpha
Occup= 0
   1         0.9001
   2        -0.9001
   3        -0.9001
   4         0.9001
   5         0.9001
   6        -0.9001
   7        -0.9001
   8         0.9001
Sym=   A
Ene=   3.6945
Spin=  Alpha
Occup= 0
   1         1.5938
   2        -1.5938
   3        -1.5938
   4         1.5938
   5        -1.5938
   6         1.5938
   7         1.5938
   8        -1.5938
