[Molden Format]
made by Quiqbox

[Atoms] (AU)
F    1    9         -0.86644         0.00000         0.00000
H    2    1          0.86644         0.00000         0.00000

[GTO]
1 0
S    3   1.0
       166.679134                  0.1543289673
        30.36081233                0.5353281423
         8.216820672               0.4446345422
S    3   1.0
         6.464803249              -0.09996722919
         1.502281245               0.3995128261
         0.4885884864              0.7001154689
P    3   1.0
         6.464803249               0.155916275
         1.502281245               0.6076837186
         0.4885884864              0.3919573931

2 0
S    3   1.0
         3.425250914               0.1543289673
         0.6239137298              0.5353281423
         0.168855404               0.4446345422

[MO]
Sym=   A
Ene=  -26.11931
Spin=  Alpha
Occup= 1
   1        -0.99463
   2        -0.02289
   3        -0.00219
   4         0.00000
   5         0.00000
   6         0.00559
Sym=   A
Ene=  -1.63294
Spin=  Alpha
Occup= 1
   1        -0.25980
   2         0.99665
   3         0.03132
   4         0.00000
   5         0.00000
   6         0.06433
Sym=   A
Ene=  -0.73283
Spin=  Alpha
Occup= 1
   1         0.00000
   2         0.00000
   3         0.00000
   4         0.00000
   5         1.00000
   6         0.00000
Sym=   A
Ene=  -0.68780
Spin=  Alpha
Occup= 1
   1         0.03641
   2        -0.20621
   3         0.86213
   4         0.00000
   5         0.00000
   6         0.30025
Sym=   A
Ene=  -0.62529
Spin=  Alpha
Occup= 1
   1         0.00000
   2         0.00000
   3         0.00000
   4         1.00000
   5         0.00000
   6         0.00000
Sym=   A
Ene=   0.73159
Spin=  Alpha
Occup= 0
   1         0.08619
   2        -0.58536
   3        -0.66103
   4         0.00000
   5         0.00000
   6         1.17960
Sym=   A
Ene=  -26.10959
Spin=  Beta
Occup= 1
   1        -0.99498
   2        -0.02148
   3        -0.00214
   4         0.00000
   5         0.00000
   6         0.00548
Sym=   A
Ene=  -1.50944
Spin=  Beta
Occup= 1
   1        -0.25174
   2         0.95888
   3         0.10602
   4         0.00000
   5         0.00000
   6         0.11759
Sym=   A
Ene=  -0.76294
Spin=  Beta
Occup= 1
   1         0.06938
   2        -0.35306
   3         0.79984
   4         0.00000
   5         0.00000
   6         0.38354
Sym=   A
Ene=  -0.59367
Spin=  Beta
Occup= 1
   1         0.00000
   2         0.00000
   3         0.00000
   4         1.00000
   5         0.00000
   6         0.00000
Sym=   A
Ene=   0.03714
Spin=  Beta
Occup= 1
   1         0.08581
   2        -0.57831
   3        -0.72817
   4         0.00000
   5         0.00000
   6         1.15100
Sym=   A
Ene=   0.24253
Spin=  Beta
Occup= 0
   1         0.00000
   2         0.00000
   3         0.00000
   4         0.00000
   5         1.00000
   6         0.00000
