[Molden Format]
made by Quiqbox

[Atoms] (AU)
X    1    X         -0.6            -0.6            -0.6
X    2    X         -0.6            -0.6             0.6
X    3    X         -0.6             0.6            -0.6
X    4    X         -0.6             0.6             0.6
X    5    X          0.6            -0.6            -0.6
X    6    X          0.6            -0.6             0.6
X    7    X          0.6             0.6            -0.6
X    8    X          0.6             0.6             0.6
H    9    1          0.866439        0.0             0.0
F    10   9         -0.866439        0.0             0.0

[GTO]
1 0
S    3   1.0
         3.425250914                   0.1543289673
         0.6239137298                  0.5353281423
         0.168855404                   0.4446345422

2 0
S    3   1.0
         3.425250914                   0.1543289673
         0.6239137298                  0.5353281423
         0.168855404                   0.4446345422

3 0
S    3   1.0
         3.425250914                   0.1543289673
         0.6239137298                  0.5353281423
         0.168855404                   0.4446345422

4 0
S    3   1.0
         3.425250914                   0.1543289673
         0.6239137298                  0.5353281423
         0.168855404                   0.4446345422

5 0
S    3   1.0
         3.425250914                   0.1543289673
         0.6239137298                  0.5353281423
         0.168855404                   0.4446345422

6 0
S    3   1.0
         3.425250914                   0.1543289673
         0.6239137298                  0.5353281423
         0.168855404                   0.4446345422

7 0
S    3   1.0
         3.425250914                   0.1543289673
         0.6239137298                  0.5353281423
         0.168855404                   0.4446345422

8 0
S    3   1.0
         3.425250914                   0.1543289673
         0.6239137298                  0.5353281423
         0.168855404                   0.4446345422

[MO]
Sym=   A
Ene=  -3.568335
Spin=  Alpha
Occup= 1
   1         0.385859
   2         0.385858
   3         0.385858
   4         0.385857
   5        -0.152742
   6        -0.152742
   7        -0.152742
   8        -0.152741
Sym=   A
Ene=  -1.104943
Spin=  Alpha
Occup= 1
   1         1.165537
   2        -0.000108
   3         0.000103
   4        -1.165529
   5        -0.166438
   6         1.5e-5
   7        -1.5e-5
   8         0.166431
Sym=   A
Ene=  -1.104943
Spin=  Alpha
Occup= 1
   1         0.000106
   2         1.165532
   3        -1.165533
   4        -0.000105
   5        -1.5e-5
   6        -0.166434
   7         0.166435
   8         1.5e-5
Sym=   A
Ene=  -0.366271
Spin=  Alpha
Occup= 1
   1         0.213976
   2         0.213989
   3         0.213984
   4         0.213997
   5        -0.41393
   6        -0.413943
   7        -0.413938
   8        -0.41395
Sym=   A
Ene=   0.61546
Spin=  Alpha
Occup= 1
   1         1.456202
   2        -1.456185
   3        -1.45619
   4         1.456172
   5         0.208154
   6        -0.208187
   7        -0.208179
   8         0.208212
Sym=   A
Ene=   1.51911
Spin=  Alpha
Occup= 0
   1         5.0e-5
   2         0.788682
   3        -0.788673
   4        -6.0e-5
   5        -9.6e-5
   6        -1.397418
   7         1.397419
   8         9.8e-5
Sym=   A
Ene=   1.51911
Spin=  Alpha
Occup= 0
   1         0.788645
   2        -2.0e-5
   3         9.0e-5
   4        -0.788709
   5        -1.397421
   6         9.5e-5
   7        -0.0001
   8         1.397416
Sym=   A
Ene=   3.583364
Spin=  Alpha
Occup= 0
   1         1.103556
   2        -1.103556
   3        -1.103556
   4         1.103555
   5        -1.81521
   6         1.815207
   7         1.815208
   8        -1.815204
Sym=   A
Ene=  -3.568331
Spin=  Beta
Occup= 1
   1         0.385857
   2         0.385858
   3         0.385858
   4         0.385859
   5        -0.152741
   6        -0.152742
   7        -0.152741
   8        -0.152742
Sym=   A
Ene=  -1.104939
Spin=  Beta
Occup= 1
   1         5.4e-5
   2        -1.165531
   3         1.16553
   4        -5.4e-5
   5        -8.0e-6
   6         0.166431
   7        -0.166429
   8         8.0e-6
Sym=   A
Ene=  -1.104939
Spin=  Beta
Occup= 1
   1         1.165527
   2         5.5e-5
   3        -5.2e-5
   4        -1.165533
   5        -0.166426
   6        -8.0e-6
   7         8.0e-6
   8         0.166433
Sym=   A
Ene=  -0.366274
Spin=  Beta
Occup= 1
   1         0.213997
   2         0.213984
   3         0.213989
   4         0.213976
   5        -0.41395
   6        -0.413938
   7        -0.413942
   8        -0.413931
Sym=   A
Ene=   0.615465
Spin=  Beta
Occup= 1
   1         1.456161
   2        -1.456181
   3        -1.456174
   4         1.456195
   5         0.20823
   6        -0.208193
   7        -0.208205
   8         0.208167
Sym=   A
Ene=   1.519106
Spin=  Beta
Occup= 0
   1         0.788717
   2         0.000133
   3        -0.000208
   4        -0.788646
   5        -1.397418
   6        -0.000299
   7         0.000306
   8         1.39742
Sym=   A
Ene=   1.519106
Spin=  Beta
Occup= 0
   1         0.000163
   2        -0.788674
   3         0.788688
   4        -0.000178
   5        -0.000302
   6         1.397419
   7        -1.397419
   8         0.000303
Sym=   A
Ene=   3.583359
Spin=  Beta
Occup= 0
   1         1.103567
   2        -1.103569
   3        -1.103568
   4         1.10357
   5        -1.815201
   6         1.815206
   7         1.815204
   8        -1.81521
