[Molden Format]
made by Quiqbox

[Atoms] (AU)
X    1    X         -0.60000        -0.60000        -0.60000
X    2    X         -0.60000        -0.60000         0.60000
X    3    X         -0.60000         0.60000        -0.60000
X    4    X         -0.60000         0.60000         0.60000
X    5    X          0.60000        -0.60000        -0.60000
X    6    X          0.60000        -0.60000         0.60000
X    7    X          0.60000         0.60000        -0.60000
X    8    X          0.60000         0.60000         0.60000
N    9    7          0.00000         0.00000         0.20995
H    10   1          0.00000         1.76047        -0.48982
H    11   1          1.52463        -0.88023        -0.48982
H    12   1         -1.52463        -0.88023        -0.48982

[GTO]
1 0
S    2   1.0
         1.309756377               0.4301284983
         0.2331359749              0.6789135305

2 0
S    2   1.0
         1.309756377               0.4301284983
         0.2331359749              0.6789135305

3 0
S    2   1.0
         1.309756377               0.4301284983
         0.2331359749              0.6789135305

4 0
S    2   1.0
         1.309756377               0.4301284983
         0.2331359749              0.6789135305

5 0
S    2   1.0
         1.309756377               0.4301284983
         0.2331359749              0.6789135305

6 0
S    2   1.0
         1.309756377               0.4301284983
         0.2331359749              0.6789135305

7 0
S    2   1.0
         1.309756377               0.4301284983
         0.2331359749              0.6789135305

8 0
S    2   1.0
         1.309756377               0.4301284983
         0.2331359749              0.6789135305

[MO]
Sym=   A
Ene=  -2.38572
Spin=  Alpha
Occup= 2
   1         0.05456
   2         0.25131
   3         0.06231
   4         0.23105
   5         0.05463
   6         0.25130
   7         0.06233
   8         0.23099
Sym=   A
Ene=  -0.80605
Spin=  Alpha
Occup= 2
   1         0.43080
   2         0.53294
   3         0.22750
   4         0.45141
   5        -0.43159
   6        -0.53382
   7        -0.22699
   8        -0.45029
Sym=   A
Ene=  -0.78874
Spin=  Alpha
Occup= 2
   1         0.30295
   2         0.51458
   3        -0.34922
   4        -0.47876
   5         0.30208
   6         0.51353
   7        -0.34967
   8        -0.47966
Sym=   A
Ene=  -0.63102
Spin=  Alpha
Occup= 2
   1         0.45424
   2        -0.34314
   3         0.41952
   4        -0.39505
   5         0.45411
   6        -0.34340
   7         0.41946
   8        -0.39529
Sym=   A
Ene=   0.63950
Spin=  Alpha
Occup= 2
   1         1.19297
   2         0.37323
   3        -0.37193
   4        -1.24038
   5        -1.19183
   6        -0.37426
   7         0.37082
   8         1.24142
Sym=   A
Ene=   1.21680
Spin=  Alpha
Occup= 0
   1         0.93477
   2        -0.85482
   3        -0.93508
   4         0.85929
   5         0.93651
   6        -0.85508
   7        -0.93491
   8         0.85769
Sym=   A
Ene=   1.23646
Spin=  Alpha
Occup= 0
   1         0.52465
   2        -1.25991
   3         1.15017
   4        -0.22335
   5        -0.52412
   6         1.25943
   7        -1.15066
   8         0.22381
Sym=   A
Ene=   2.95249
Spin=  Alpha
Occup= 0
   1         1.56497
   2        -1.52346
   3        -1.67894
   4         1.59336
   5        -1.56496
   6         1.52345
   7         1.67893
   8        -1.59334
