[Molden Format]
made by Quiqbox

[Atoms] (AU)
F    1    9         -0.86644        0.0            0.0
H    2    1          0.86644        0.0            0.0

[GTO]
1 0
S    3   1.0
       166.679134                      0.1543289673
        30.36081233                    0.5353281423
         8.216820672                   0.4446345422
S    3   1.0
         6.464803249                  -0.09996722919
         1.502281245                   0.3995128261
         0.4885884864                  0.7001154689
P    3   1.0
         6.464803249                   0.155916275
         1.502281245                   0.6076837186
         0.4885884864                  0.3919573931

2 0
S    3   1.0
         3.425250914                   0.1543289673
         0.6239137298                  0.5353281423
         0.168855404                   0.4446345422

[MO]
Sym=   A
Ene=  -25.90004
Spin=  Alpha
Occup= 1
   1        -0.9947
   2        -0.02264
   3        -0.00296
   4         0.0
   5         0.0
   6         0.00578
Sym=   A
Ene=  -1.47123
Spin=  Alpha
Occup= 1
   1        -0.24919
   2         0.93626
   3         0.0899
   4         0.0
   5         0.0
   6         0.15841
Sym=   A
Ene=  -0.58522
Spin=  Alpha
Occup= 1
   1         0.08247
   2        -0.43458
   3         0.70226
   4         0.0
   5         0.0
   6         0.52121
Sym=   A
Ene=  -0.46417
Spin=  Alpha
Occup= 1
   1         0.0
   2         0.0
   3         0.0
   4         1.0
   5         0.0
   6         0.0
Sym=   A
Ene=  -0.46417
Spin=  Alpha
Occup= 1
   1         0.0
   2         0.0
   3         0.0
   4         0.0
   5         1.0
   6         0.0
Sym=   A
Ene=   0.62902
Spin=  Alpha
Occup= 0
   1         0.08489
   2        -0.55952
   3        -0.82459
   4         0.0
   5         0.0
   6         1.0904
Sym=   A
Ene=  -25.90002
Spin=  Beta
Occup= 1
   1        -0.9947
   2        -0.02264
   3        -0.00296
   4         0.0
   5         0.0
   6         0.00578
Sym=   A
Ene=  -1.47117
Spin=  Beta
Occup= 1
   1        -0.24919
   2         0.93623
   3         0.08986
   4         0.0
   5         0.0
   6         0.15848
Sym=   A
Ene=  -0.58513
Spin=  Beta
Occup= 1
   1         0.0825
   2        -0.43475
   3         0.70201
   4         0.0
   5         0.0
   6         0.52153
Sym=   A
Ene=  -0.46415
Spin=  Beta
Occup= 1
   1         0.0
   2         0.0
   3         0.0
   4         1.0
   5         0.0
   6         0.0
Sym=   A
Ene=  -0.46415
Spin=  Beta
Occup= 1
   1         0.0
   2         0.0
   3         0.0
   4         0.0
   5         1.0
   6         0.0
Sym=   A
Ene=   0.62904
Spin=  Beta
Occup= 0
   1         0.08488
   2        -0.55944
   3        -0.82481
   4         0.0
   5         0.0
   6         1.09024
