[Molden Format]
made by Quiqbox

[Atoms] (AU)
X    1    X         -0.6          -0.6          -0.6
X    2    X         -0.6          -0.6           0.6
X    3    X         -0.6           0.6          -0.6
X    4    X         -0.6           0.6           0.6
X    5    X          0.6          -0.6          -0.6
X    6    X          0.6          -0.6           0.6
X    7    X          0.6           0.6          -0.6
X    8    X          0.6           0.6           0.6
H    9    1          0.7001        0.0           0.0
H    10   1         -0.7001        0.0           0.0

[GTO]
1 0
S    2   1.0
         1.309756377                   0.4301284983
         0.2331359749                  0.6789135305

2 0
S    2   1.0
         1.309756377                   0.4301284983
         0.2331359749                  0.6789135305

3 0
S    2   1.0
         1.309756377                   0.4301284983
         0.2331359749                  0.6789135305

4 0
S    2   1.0
         1.309756377                   0.4301284983
         0.2331359749                  0.6789135305

5 0
S    2   1.0
         1.309756377                   0.4301284983
         0.2331359749                  0.6789135305

6 0
S    2   1.0
         1.309756377                   0.4301284983
         0.2331359749                  0.6789135305

7 0
S    2   1.0
         1.309756377                   0.4301284983
         0.2331359749                  0.6789135305

8 0
S    2   1.0
         1.309756377                   0.4301284983
         0.2331359749                  0.6789135305

[MO]
Sym=   A
Ene=  -0.5423
Spin=  Alpha
Occup= 1
   1         0.1537
   2         0.1537
   3         0.1537
   4         0.1537
   5         0.1535
   6         0.1535
   7         0.1535
   8         0.1535
Sym=   A
Ene=   0.5786
Spin=  Alpha
Occup= 0
   1         0.4137
   2         0.4137
   3         0.4137
   4         0.4137
   5        -0.4138
   6        -0.4138
   7        -0.4138
   8        -0.4138
Sym=   A
Ene=   0.7924
Spin=  Alpha
Occup= 0
   1         0.582
   2         0.0613
   3        -0.0613
   4        -0.582
   5         0.5819
   6         0.0613
   7        -0.0613
   8        -0.5819
Sym=   A
Ene=   0.7924
Spin=  Alpha
Occup= 0
   1         0.0613
   2        -0.582
   3         0.582
   4        -0.0613
   5         0.0613
   6        -0.5819
   7         0.5819
   8        -0.0613
Sym=   A
Ene=   2.0729
Spin=  Alpha
Occup= 0
   1         1.0267
   2         0.7524
   3        -0.7524
   4        -1.0267
   5        -1.0268
   6        -0.7525
   7         0.7525
   8         1.0268
Sym=   A
Ene=   2.0729
Spin=  Alpha
Occup= 0
   1         0.7524
   2        -1.0267
   3         1.0267
   4        -0.7524
   5        -0.7525
   6         1.0268
   7        -1.0268
   8         0.7525
Sym=   A
Ene=   2.181
Spin=  Alpha
Occup= 0
   1         0.9001
   2        -0.9001
   3        -0.9001
   4         0.9001
   5         0.9001
   6        -0.9001
   7        -0.9001
   8         0.9001
Sym=   A
Ene=   3.6945
Spin=  Alpha
Occup= 0
   1         1.5938
   2        -1.5938
   3        -1.5938
   4         1.5938
   5        -1.5938
   6         1.5938
   7         1.5938
   8        -1.5938
Sym=   A
Ene=  -0.5423
Spin=  Beta
Occup= 1
   1         0.1535
   2         0.1535
   3         0.1535
   4         0.1535
   5         0.1537
   6         0.1537
   7         0.1537
   8         0.1537
Sym=   A
Ene=   0.5786
Spin=  Beta
Occup= 0
   1         0.4138
   2         0.4138
   3         0.4138
   4         0.4138
   5        -0.4137
   6        -0.4137
   7        -0.4137
   8        -0.4137
Sym=   A
Ene=   0.7924
Spin=  Beta
Occup= 0
   1         0.5847
   2        -0.0227
   3         0.0227
   4        -0.5847
   5         0.5847
   6        -0.0227
   7         0.0227
   8        -0.5847
Sym=   A
Ene=   0.7924
Spin=  Beta
Occup= 0
   1         0.0227
   2         0.5847
   3        -0.5847
   4        -0.0227
   5         0.0227
   6         0.5847
   7        -0.5847
   8        -0.0227
Sym=   A
Ene=   2.0729
Spin=  Beta
Occup= 0
   1         0.8608
   2         0.9378
   3        -0.9378
   4        -0.8608
   5        -0.8607
   6        -0.9378
   7         0.9378
   8         0.8607
Sym=   A
Ene=   2.0729
Spin=  Beta
Occup= 0
   1         0.9378
   2        -0.8608
   3         0.8608
   4        -0.9378
   5        -0.9378
   6         0.8607
   7        -0.8607
   8         0.9378
Sym=   A
Ene=   2.181
Spin=  Beta
Occup= 0
   1         0.9001
   2        -0.9001
   3        -0.9001
   4         0.9001
   5         0.9001
   6        -0.9001
   7        -0.9001
   8         0.9001
Sym=   A
Ene=   3.6945
Spin=  Beta
Occup= 0
   1         1.5938
   2        -1.5938
   3        -1.5938
   4         1.5938
   5        -1.5938
   6         1.5938
   7         1.5938
   8        -1.5938
