[Molden Format]
made by Quiqbox

[Atoms] (AU)
X    1    X         -0.60000        -0.60000        -0.60000
X    2    X         -0.60000        -0.60000         0.60000
X    3    X         -0.60000         0.60000        -0.60000
X    4    X         -0.60000         0.60000         0.60000
X    5    X          0.60000        -0.60000        -0.60000
X    6    X          0.60000        -0.60000         0.60000
X    7    X          0.60000         0.60000        -0.60000
X    8    X          0.60000         0.60000         0.60000
N    9    7          0.00000         0.00000         0.20995
H    10   1          0.00000         1.76047        -0.48982
H    11   1          1.52463        -0.88023        -0.48982
H    12   1         -1.52463        -0.88023        -0.48982

[GTO]
1 0
S    3   1.0
         3.425250914               0.1543289673
         0.6239137298              0.5353281423
         0.168855404               0.4446345422

2 0
S    3   1.0
         3.425250914               0.1543289673
         0.6239137298              0.5353281423
         0.168855404               0.4446345422

3 0
S    3   1.0
         3.425250914               0.1543289673
         0.6239137298              0.5353281423
         0.168855404               0.4446345422

4 0
S    3   1.0
         3.425250914               0.1543289673
         0.6239137298              0.5353281423
         0.168855404               0.4446345422

5 0
S    3   1.0
         3.425250914               0.1543289673
         0.6239137298              0.5353281423
         0.168855404               0.4446345422

6 0
S    3   1.0
         3.425250914               0.1543289673
         0.6239137298              0.5353281423
         0.168855404               0.4446345422

7 0
S    3   1.0
         3.425250914               0.1543289673
         0.6239137298              0.5353281423
         0.168855404               0.4446345422

8 0
S    3   1.0
         3.425250914               0.1543289673
         0.6239137298              0.5353281423
         0.168855404               0.4446345422

[MO]
Sym=   A
Ene=  -2.35259
Spin=  Alpha
Occup= 1
   1         0.06237
   2         0.24437
   3         0.06648
   4         0.23177
   5         0.07187
   6         0.23828
   7         0.07289
   8         0.21593
Sym=   A
Ene=  -0.74447
Spin=  Alpha
Occup= 1
   1         0.26085
   2         0.37955
   3         0.27989
   4         0.61354
   5        -0.56789
   6        -0.61655
   7        -0.15177
   8        -0.22140
Sym=   A
Ene=  -0.71093
Spin=  Alpha
Occup= 1
   1         0.41479
   2         0.67133
   3        -0.24875
   4        -0.32584
   5         0.16416
   6         0.29677
   7        -0.42544
   8        -0.57156
Sym=   A
Ene=  -0.54790
Spin=  Alpha
Occup= 1
   1         0.48294
   2        -0.29616
   3         0.45250
   4        -0.33092
   5         0.40437
   6        -0.44123
   7         0.39187
   8        -0.42165
Sym=   A
Ene=   0.72757
Spin=  Alpha
Occup= 1
   1         0.92615
   2         0.60401
   3        -0.14898
   4        -1.43622
   5        -1.31880
   6        -0.24314
   7         0.54633
   8         1.07476
Sym=   A
Ene=   1.33526
Spin=  Alpha
Occup= 0
   1         1.22154
   2        -0.92492
   3        -0.80973
   4         0.53334
   5         0.58970
   6        -0.74176
   7        -1.00791
   8         1.14574
Sym=   A
Ene=   1.34183
Spin=  Alpha
Occup= 0
   1         0.37434
   2        -1.13774
   3         1.28289
   4        -0.33391
   5        -0.63873
   6         1.38580
   7        -1.00976
   8         0.08154
Sym=   A
Ene=   3.40768
Spin=  Alpha
Occup= 0
   1         1.59568
   2        -1.50218
   3        -1.68535
   4         1.55209
   5        -1.58126
   6         1.50468
   7         1.67827
   8        -1.56169
Sym=   A
Ene=  -2.35278
Spin=  Beta
Occup= 1
   1         0.07044
   2         0.24150
   3         0.07531
   4         0.21131
   5         0.05741
   6         0.24695
   7         0.06861
   8         0.23215
Sym=   A
Ene=  -0.74121
Spin=  Beta
Occup= 1
   1         0.57686
   2         0.66698
   3         0.07872
   4         0.12230
   5        -0.18308
   6        -0.26370
   7        -0.32275
   8        -0.65719
Sym=   A
Ene=  -0.71672
Spin=  Beta
Occup= 1
   1         0.04419
   2         0.21096
   3        -0.47628
   4        -0.56471
   5         0.40873
   6         0.75407
   7        -0.22217
   8        -0.20018
Sym=   A
Ene=  -0.54499
Spin=  Beta
Occup= 1
   1         0.41318
   2        -0.42423
   3         0.36146
   4        -0.46289
   5         0.50355
   6        -0.23755
   7         0.44171
   8        -0.35480
Sym=   A
Ene=   0.73483
Spin=  Beta
Occup= 1
   1         1.31039
   2         0.28638
   3        -0.68927
   4        -0.97805
   5        -0.79935
   6        -0.75476
   7         0.17463
   8         1.44598
Sym=   A
Ene=   1.33194
Spin=  Beta
Occup= 0
   1         0.81532
   2        -1.39182
   3        -0.26384
   4         0.93309
   5         0.83174
   6        -0.12290
   7        -1.38736
   8         0.59240
Sym=   A
Ene=   1.33829
Spin=  Beta
Occup= 0
   1         0.33483
   2        -0.71105
   3         1.33960
   4        -0.80793
   5        -1.07536
   6         1.38590
   7        -0.60810
   8         0.13192
Sym=   A
Ene=   3.40708
Spin=  Beta
Occup= 0
   1         1.58401
   2        -1.50368
   3        -1.67478
   4         1.56228
   5        -1.60278
   6         1.50080
   7         1.68377
   8        -1.55001
