[Molden Format]
made by Quiqbox

[Atoms] (AU)
X    1    X         -1.5       -0.9       -0.5
X    2    X          0.0        0.0        0.2
X    3    X          0.0        1.8       -0.5
X    4    X          1.5       -0.9       -0.5
H    5    1          0.7        0.0        0.0
H    6    1         -0.7        0.0        0.0

[GTO]
1 0
S    2   1.0
         1.309756377                   0.4301284983
         0.2331359749                  0.6789135305

2 0
S    2   1.0
         1.309756377                   0.4301284983
         0.2331359749                  0.6789135305

3 0
S    2   1.0
         1.309756377                   0.4301284983
         0.2331359749                  0.6789135305

4 0
S    2   1.0
         1.309756377                   0.4301284983
         0.2331359749                  0.6789135305

[MO]
Sym=   A
Ene=  -0.5
Spin=  Alpha
Occup= 1
   1         0.1
   2         0.8
   3         0.1
   4         0.1
Sym=   A
Ene=   0.7
Spin=  Alpha
Occup= 0
   1        -0.8
   2         0.0
   3         0.0
   4         0.8
Sym=   A
Ene=   0.8
Spin=  Alpha
Occup= 0
   1        -0.5
   2         0.1
   3         0.9
   4        -0.5
Sym=   A
Ene=   1.2
Spin=  Alpha
Occup= 0
   1        -0.7
   2         1.2
   3        -0.7
   4        -0.7
Sym=   A
Ene=  -0.5
Spin=  Beta
Occup= 1
   1         0.1
   2         0.8
   3         0.1
   4         0.1
Sym=   A
Ene=   0.7
Spin=  Beta
Occup= 0
   1         0.8
   2         0.0
   3         0.0
   4        -0.8
Sym=   A
Ene=   0.8
Spin=  Beta
Occup= 0
   1        -0.5
   2         0.1
   3         0.9
   4        -0.5
Sym=   A
Ene=   1.2
Spin=  Beta
Occup= 0
   1        -0.7
   2         1.2
   3        -0.7
   4        -0.7
