[Molden Format]
made by Quiqbox

[Atoms] (AU)
X    1    X         -0.6        -0.6        -0.6
X    2    X         -0.6        -0.6         0.6
X    3    X         -0.6         0.6        -0.6
X    4    X         -0.6         0.6         0.6
X    5    X          0.6        -0.6        -0.6
X    6    X          0.6        -0.6         0.6
X    7    X          0.6         0.6        -0.6
X    8    X          0.6         0.6         0.6
H    9    1          0.87        0.0         0.0
F    10   9         -0.87        0.0         0.0

[GTO]
1 0
S    2   1.0
         1.309756377                   0.4301284983
         0.2331359749                  0.6789135305

2 0
S    2   1.0
         1.309756377                   0.4301284983
         0.2331359749                  0.6789135305

3 0
S    2   1.0
         1.309756377                   0.4301284983
         0.2331359749                  0.6789135305

4 0
S    2   1.0
         1.309756377                   0.4301284983
         0.2331359749                  0.6789135305

5 0
S    2   1.0
         1.309756377                   0.4301284983
         0.2331359749                  0.6789135305

6 0
S    2   1.0
         1.309756377                   0.4301284983
         0.2331359749                  0.6789135305

7 0
S    2   1.0
         1.309756377                   0.4301284983
         0.2331359749                  0.6789135305

8 0
S    2   1.0
         1.309756377                   0.4301284983
         0.2331359749                  0.6789135305

[MO]
Sym=   A
Ene=  -3.66
Spin=  Alpha
Occup= 1
   1         0.39
   2         0.39
   3         0.39
   4         0.39
   5        -0.16
   6        -0.16
   7        -0.16
   8        -0.16
Sym=   A
Ene=  -1.2
Spin=  Alpha
Occup= 1
   1         1.18
   2        -0.0
   3         0.0
   4        -1.18
   5        -0.2
   6         0.0
   7        -0.0
   8         0.2
Sym=   A
Ene=  -1.2
Spin=  Alpha
Occup= 1
   1         0.0
   2         1.18
   3        -1.18
   4        -0.0
   5        -0.0
   6        -0.2
   7         0.2
   8         0.0
Sym=   A
Ene=  -0.42
Spin=  Alpha
Occup= 1
   1         0.21
   2         0.21
   3         0.21
   4         0.21
   5        -0.41
   6        -0.41
   7        -0.41
   8        -0.41
Sym=   A
Ene=   0.59
Spin=  Alpha
Occup= 1
   1         1.49
   2        -1.49
   3        -1.49
   4         1.49
   5         0.14
   6        -0.14
   7        -0.14
   8         0.14
Sym=   A
Ene=   1.39
Spin=  Alpha
Occup= 0
   1         0.0
   2         0.75
   3        -0.75
   4        -0.0
   5        -0.0
   6        -1.39
   7         1.39
   8         0.0
Sym=   A
Ene=   1.39
Spin=  Alpha
Occup= 0
   1         0.75
   2         0.0
   3         0.0
   4        -0.75
   5        -1.39
   6         0.0
   7        -0.0
   8         1.39
Sym=   A
Ene=   3.12
Spin=  Alpha
Occup= 0
   1         1.06
   2        -1.06
   3        -1.06
   4         1.06
   5        -1.82
   6         1.82
   7         1.82
   8        -1.82
Sym=   A
Ene=  -3.66
Spin=  Beta
Occup= 1
   1         0.39
   2         0.39
   3         0.39
   4         0.39
   5        -0.16
   6        -0.16
   7        -0.16
   8        -0.16
Sym=   A
Ene=  -1.2
Spin=  Beta
Occup= 1
   1         0.0
   2        -1.18
   3         1.18
   4        -0.0
   5        -0.0
   6         0.2
   7        -0.2
   8         0.0
Sym=   A
Ene=  -1.2
Spin=  Beta
Occup= 1
   1         1.18
   2         0.0
   3        -0.0
   4        -1.18
   5        -0.2
   6        -0.0
   7         0.0
   8         0.2
Sym=   A
Ene=  -0.42
Spin=  Beta
Occup= 1
   1         0.21
   2         0.21
   3         0.21
   4         0.21
   5        -0.41
   6        -0.41
   7        -0.41
   8        -0.41
Sym=   A
Ene=   0.59
Spin=  Beta
Occup= 1
   1         1.49
   2        -1.49
   3        -1.49
   4         1.49
   5         0.14
   6        -0.14
   7        -0.14
   8         0.14
Sym=   A
Ene=   1.39
Spin=  Beta
Occup= 0
   1         0.75
   2         0.0
   3        -0.0
   4        -0.75
   5        -1.39
   6        -0.0
   7         0.0
   8         1.39
Sym=   A
Ene=   1.39
Spin=  Beta
Occup= 0
   1         0.0
   2        -0.75
   3         0.75
   4        -0.0
   5        -0.0
   6         1.39
   7        -1.39
   8         0.0
Sym=   A
Ene=   3.12
Spin=  Beta
Occup= 0
   1         1.06
   2        -1.06
   3        -1.06
   4         1.06
   5        -1.82
   6         1.82
   7         1.82
   8        -1.82
