[Molden Format]
made by Quiqbox

[Atoms] (AU)
X    1    X         -0.6        -0.6        -0.6
X    2    X         -0.6        -0.6         0.6
X    3    X         -0.6         0.6        -0.6
X    4    X         -0.6         0.6         0.6
X    5    X          0.6        -0.6        -0.6
X    6    X          0.6        -0.6         0.6
X    7    X          0.6         0.6        -0.6
X    8    X          0.6         0.6         0.6
N    9    7          0.0         0.0         0.21
H    10   1          0.0         1.76       -0.49
H    11   1          1.52       -0.88       -0.49
H    12   1         -1.52       -0.88       -0.49

[GTO]
1 0
S    2   1.0
         1.309756377                   0.4301284983
         0.2331359749                  0.6789135305

2 0
S    2   1.0
         1.309756377                   0.4301284983
         0.2331359749                  0.6789135305

3 0
S    2   1.0
         1.309756377                   0.4301284983
         0.2331359749                  0.6789135305

4 0
S    2   1.0
         1.309756377                   0.4301284983
         0.2331359749                  0.6789135305

5 0
S    2   1.0
         1.309756377                   0.4301284983
         0.2331359749                  0.6789135305

6 0
S    2   1.0
         1.309756377                   0.4301284983
         0.2331359749                  0.6789135305

7 0
S    2   1.0
         1.309756377                   0.4301284983
         0.2331359749                  0.6789135305

8 0
S    2   1.0
         1.309756377                   0.4301284983
         0.2331359749                  0.6789135305

[MO]
Sym=   A
Ene=  -2.39
Spin=  Alpha
Occup= 2
   1         0.05
   2         0.25
   3         0.06
   4         0.23
   5         0.05
   6         0.25
   7         0.06
   8         0.23
Sym=   A
Ene=  -0.81
Spin=  Alpha
Occup= 2
   1         0.43
   2         0.53
   3         0.23
   4         0.45
   5        -0.43
   6        -0.53
   7        -0.23
   8        -0.45
Sym=   A
Ene=  -0.79
Spin=  Alpha
Occup= 2
   1         0.3
   2         0.51
   3        -0.35
   4        -0.48
   5         0.3
   6         0.51
   7        -0.35
   8        -0.48
Sym=   A
Ene=  -0.63
Spin=  Alpha
Occup= 2
   1         0.45
   2        -0.34
   3         0.42
   4        -0.4
   5         0.45
   6        -0.34
   7         0.42
   8        -0.4
Sym=   A
Ene=   0.64
Spin=  Alpha
Occup= 2
   1         1.19
   2         0.37
   3        -0.37
   4        -1.24
   5        -1.19
   6        -0.37
   7         0.37
   8         1.24
Sym=   A
Ene=   1.22
Spin=  Alpha
Occup= 0
   1         0.94
   2        -0.85
   3        -0.93
   4         0.86
   5         0.94
   6        -0.85
   7        -0.93
   8         0.86
Sym=   A
Ene=   1.24
Spin=  Alpha
Occup= 0
   1         0.52
   2        -1.26
   3         1.15
   4        -0.22
   5        -0.52
   6         1.26
   7        -1.15
   8         0.22
Sym=   A
Ene=   2.95
Spin=  Alpha
Occup= 0
   1         1.56
   2        -1.52
   3        -1.68
   4         1.59
   5        -1.56
   6         1.52
   7         1.68
   8        -1.59
