[Molden Format]
made by Quiqbox

[Atoms] (AU)
X    1    X         -0.60000        -0.60000        -0.60000
X    2    X         -0.60000        -0.60000         0.60000
X    3    X         -0.60000         0.60000        -0.60000
X    4    X         -0.60000         0.60000         0.60000
X    5    X          0.60000        -0.60000        -0.60000
X    6    X          0.60000        -0.60000         0.60000
X    7    X          0.60000         0.60000        -0.60000
X    8    X          0.60000         0.60000         0.60000
H    9    1          0.86644         0.00000         0.00000
F    10   9         -0.86644         0.00000         0.00000

[GTO]
1 0
S    3   1.0
         3.425250914               0.1543289673
         0.6239137298              0.5353281423
         0.168855404               0.4446345422

2 0
S    3   1.0
         3.425250914               0.1543289673
         0.6239137298              0.5353281423
         0.168855404               0.4446345422

3 0
S    3   1.0
         3.425250914               0.1543289673
         0.6239137298              0.5353281423
         0.168855404               0.4446345422

4 0
S    3   1.0
         3.425250914               0.1543289673
         0.6239137298              0.5353281423
         0.168855404               0.4446345422

5 0
S    3   1.0
         3.425250914               0.1543289673
         0.6239137298              0.5353281423
         0.168855404               0.4446345422

6 0
S    3   1.0
         3.425250914               0.1543289673
         0.6239137298              0.5353281423
         0.168855404               0.4446345422

7 0
S    3   1.0
         3.425250914               0.1543289673
         0.6239137298              0.5353281423
         0.168855404               0.4446345422

8 0
S    3   1.0
         3.425250914               0.1543289673
         0.6239137298              0.5353281423
         0.168855404               0.4446345422

[MO]
Sym=   A
Ene=  -3.56838
Spin=  Alpha
Occup= 2
   1         0.38585
   2         0.38586
   3         0.38586
   4         0.38586
   5        -0.15274
   6        -0.15274
   7        -0.15274
   8        -0.15274
Sym=   A
Ene=  -1.10497
Spin=  Alpha
Occup= 2
   1         1.16353
   2        -0.06811
   3         0.06812
   4        -1.16353
   5        -0.16614
   6         0.00973
   7        -0.00973
   8         0.16613
Sym=   A
Ene=  -1.10497
Spin=  Alpha
Occup= 2
   1         0.06812
   2         1.16353
   3        -1.16353
   4        -0.06812
   5        -0.00973
   6        -0.16613
   7         0.16614
   8         0.00973
Sym=   A
Ene=  -0.36624
Spin=  Alpha
Occup= 2
   1         0.21399
   2         0.21399
   3         0.21399
   4         0.21399
   5        -0.41395
   6        -0.41394
   7        -0.41394
   8        -0.41393
Sym=   A
Ene=   0.61544
Spin=  Alpha
Occup= 2
   1         1.45623
   2        -1.45616
   3        -1.45620
   4         1.45612
   5         0.20811
   6        -0.20824
   7        -0.20817
   8         0.20830
Sym=   A
Ene=   1.51913
Spin=  Alpha
Occup= 0
   1         0.03783
   2         0.78782
   3        -0.78774
   4        -0.03791
   5        -0.06711
   6        -1.39580
   7         1.39581
   8         0.06709
Sym=   A
Ene=   1.51913
Spin=  Alpha
Occup= 0
   1         0.78768
   2        -0.03778
   3         0.03796
   4        -0.78787
   5        -1.39582
   6         0.06712
   7        -0.06708
   8         1.39580
Sym=   A
Ene=   3.58338
Spin=  Alpha
Occup= 0
   1         1.10357
   2        -1.10357
   3        -1.10357
   4         1.10357
   5        -1.81520
   6         1.81521
   7         1.81520
   8        -1.81521
