[Molden Format]
made by Quiqbox

[Atoms] (AU)
F    1    9         -0.86644        0.00000        0.00000
H    2    1          0.86644        0.00000        0.00000

[GTO]
1 0
S    2   1.0
        63.73520195                    0.4301284983
        11.34483382                    0.6789135305
S    2   1.0
         2.498548256                   0.0494717692
         0.6336978147                  0.9637824081
P    2   1.0
         2.498548256                   0.5115407076
         0.6336978147                  0.6128198961

2 0
S    2   1.0
         1.309756377                   0.4301284983
         0.2331359749                  0.6789135305

[MO]
Sym=   A
Ene=  -25.04689
Spin=  Alpha
Occup= 2
   1        -0.98733
   2        -0.04757
   3        -0.00525
   4         0.00000
   5         0.00000
   6         0.01256
Sym=   A
Ene=  -1.41681
Spin=  Alpha
Occup= 2
   1        -0.28669
   2         0.92380
   3         0.08474
   4         0.00000
   5         0.00000
   6         0.18838
Sym=   A
Ene=  -0.53814
Spin=  Alpha
Occup= 2
   1         0.10853
   2        -0.46690
   3         0.67551
   4         0.00000
   5         0.00000
   6         0.55349
Sym=   A
Ene=  -0.39862
Spin=  Alpha
Occup= 2
   1         0.00000
   2         0.00000
   3         0.00000
   4         1.00000
   5         0.00000
   6         0.00000
Sym=   A
Ene=  -0.39862
Spin=  Alpha
Occup= 2
   1         0.00000
   2         0.00000
   3         0.00000
   4         0.00000
   5         1.00000
   6         0.00000
Sym=   A
Ene=   0.69258
Spin=  Alpha
Occup= 0
   1         0.10872
   2        -0.55575
   3        -0.84173
   4         0.00000
   5         0.00000
   6         1.05928
