[Molden Format]
made by Quiqbox

[Atoms] (AU)
X    1    X         -0.6         -0.6         -0.6
X    2    X         -0.6         -0.6          0.6
X    3    X         -0.6          0.6         -0.6
X    4    X         -0.6          0.6          0.6
X    5    X          0.6         -0.6         -0.6
X    6    X          0.6         -0.6          0.6
X    7    X          0.6          0.6         -0.6
X    8    X          0.6          0.6          0.6
H    9    1          0.866        0.0          0.0
F    10   9         -0.866        0.0          0.0

[GTO]
1 0
S    3   1.0
         3.425250914                   0.1543289673
         0.6239137298                  0.5353281423
         0.168855404                   0.4446345422

2 0
S    3   1.0
         3.425250914                   0.1543289673
         0.6239137298                  0.5353281423
         0.168855404                   0.4446345422

3 0
S    3   1.0
         3.425250914                   0.1543289673
         0.6239137298                  0.5353281423
         0.168855404                   0.4446345422

4 0
S    3   1.0
         3.425250914                   0.1543289673
         0.6239137298                  0.5353281423
         0.168855404                   0.4446345422

5 0
S    3   1.0
         3.425250914                   0.1543289673
         0.6239137298                  0.5353281423
         0.168855404                   0.4446345422

6 0
S    3   1.0
         3.425250914                   0.1543289673
         0.6239137298                  0.5353281423
         0.168855404                   0.4446345422

7 0
S    3   1.0
         3.425250914                   0.1543289673
         0.6239137298                  0.5353281423
         0.168855404                   0.4446345422

8 0
S    3   1.0
         3.425250914                   0.1543289673
         0.6239137298                  0.5353281423
         0.168855404                   0.4446345422

[MO]
Sym=   A
Ene=  -3.568
Spin=  Alpha
Occup= 2
   1         0.386
   2         0.386
   3         0.386
   4         0.386
   5        -0.153
   6        -0.153
   7        -0.153
   8        -0.153
Sym=   A
Ene=  -1.105
Spin=  Alpha
Occup= 2
   1         1.166
   2        -0.001
   3         0.001
   4        -1.166
   5        -0.166
   6         0.0
   7        -0.0
   8         0.166
Sym=   A
Ene=  -1.105
Spin=  Alpha
Occup= 2
   1         0.001
   2         1.166
   3        -1.166
   4        -0.001
   5        -0.0
   6        -0.166
   7         0.166
   8         0.0
Sym=   A
Ene=  -0.366
Spin=  Alpha
Occup= 2
   1         0.214
   2         0.214
   3         0.214
   4         0.214
   5        -0.414
   6        -0.414
   7        -0.414
   8        -0.414
Sym=   A
Ene=   0.615
Spin=  Alpha
Occup= 2
   1         1.456
   2        -1.456
   3        -1.456
   4         1.456
   5         0.208
   6        -0.208
   7        -0.208
   8         0.208
Sym=   A
Ene=   1.519
Spin=  Alpha
Occup= 0
   1         0.789
   2         0.001
   3        -0.001
   4        -0.789
   5        -1.397
   6        -0.002
   7         0.002
   8         1.397
Sym=   A
Ene=   1.519
Spin=  Alpha
Occup= 0
   1         0.001
   2        -0.789
   3         0.789
   4        -0.001
   5        -0.002
   6         1.397
   7        -1.397
   8         0.002
Sym=   A
Ene=   3.583
Spin=  Alpha
Occup= 0
   1         1.104
   2        -1.104
   3        -1.104
   4         1.104
   5        -1.815
   6         1.815
   7         1.815
   8        -1.815
