[Molden Format]
made by Quiqbox

[Atoms] (AU)
X    1    X         -0.6        -0.6        -0.6
X    2    X         -0.6        -0.6         0.6
X    3    X         -0.6         0.6        -0.6
X    4    X         -0.6         0.6         0.6
X    5    X          0.6        -0.6        -0.6
X    6    X          0.6        -0.6         0.6
X    7    X          0.6         0.6        -0.6
X    8    X          0.6         0.6         0.6
N    9    7          0.0         0.0         0.21
H    10   1          0.0         1.76       -0.49
H    11   1          1.52       -0.88       -0.49
H    12   1         -1.52       -0.88       -0.49

[GTO]
1 0
S    3   1.0
         3.425250914                   0.1543289673
         0.6239137298                  0.5353281423
         0.168855404                   0.4446345422

2 0
S    3   1.0
         3.425250914                   0.1543289673
         0.6239137298                  0.5353281423
         0.168855404                   0.4446345422

3 0
S    3   1.0
         3.425250914                   0.1543289673
         0.6239137298                  0.5353281423
         0.168855404                   0.4446345422

4 0
S    3   1.0
         3.425250914                   0.1543289673
         0.6239137298                  0.5353281423
         0.168855404                   0.4446345422

5 0
S    3   1.0
         3.425250914                   0.1543289673
         0.6239137298                  0.5353281423
         0.168855404                   0.4446345422

6 0
S    3   1.0
         3.425250914                   0.1543289673
         0.6239137298                  0.5353281423
         0.168855404                   0.4446345422

7 0
S    3   1.0
         3.425250914                   0.1543289673
         0.6239137298                  0.5353281423
         0.168855404                   0.4446345422

8 0
S    3   1.0
         3.425250914                   0.1543289673
         0.6239137298                  0.5353281423
         0.168855404                   0.4446345422

[MO]
Sym=   A
Ene=  -2.35
Spin=  Alpha
Occup= 1
   1         0.05
   2         0.25
   3         0.06
   4         0.24
   5         0.08
   6         0.24
   7         0.08
   8         0.21
Sym=   A
Ene=  -0.75
Spin=  Alpha
Occup= 1
   1         0.14
   2         0.26
   3         0.28
   4         0.69
   5        -0.62
   6        -0.63
   7        -0.09
   8        -0.09
Sym=   A
Ene=  -0.71
Spin=  Alpha
Occup= 1
   1         0.39
   2         0.77
   3        -0.22
   4        -0.19
   5         0.03
   6         0.2
   7        -0.49
   8        -0.55
Sym=   A
Ene=  -0.54
Spin=  Alpha
Occup= 1
   1         0.52
   2        -0.2
   3         0.46
   4        -0.3
   5         0.38
   6        -0.48
   7         0.34
   8        -0.48
Sym=   A
Ene=   0.72
Spin=  Alpha
Occup= 1
   1         0.7
   2         0.77
   3        -0.02
   4        -1.5
   5        -1.39
   6        -0.14
   7         0.72
   8         0.87
Sym=   A
Ene=   1.34
Spin=  Alpha
Occup= 0
   1         0.37
   2        -1.11
   3         1.3
   4        -0.36
   5        -0.66
   6         1.39
   7        -0.99
   8         0.07
Sym=   A
Ene=   1.34
Spin=  Alpha
Occup= 0
   1         1.36
   2        -0.82
   3        -0.8
   4         0.27
   5         0.36
   6        -0.76
   7        -0.92
   8         1.31
Sym=   A
Ene=   3.41
Spin=  Alpha
Occup= 0
   1         1.61
   2        -1.5
   3        -1.69
   4         1.55
   5        -1.58
   6         1.5
   7         1.67
   8        -1.56
Sym=   A
Ene=  -2.35
Spin=  Beta
Occup= 1
   1         0.08
   2         0.24
   3         0.08
   4         0.21
   5         0.05
   6         0.25
   7         0.06
   8         0.24
Sym=   A
Ene=  -0.75
Spin=  Beta
Occup= 1
   1         0.62
   2         0.63
   3         0.09
   4         0.09
   5        -0.14
   6        -0.26
   7        -0.28
   8        -0.69
Sym=   A
Ene=  -0.71
Spin=  Beta
Occup= 1
   1         0.03
   2         0.2
   3        -0.49
   4        -0.55
   5         0.39
   6         0.77
   7        -0.22
   8        -0.19
Sym=   A
Ene=  -0.54
Spin=  Beta
Occup= 1
   1         0.38
   2        -0.48
   3         0.34
   4        -0.48
   5         0.52
   6        -0.2
   7         0.46
   8        -0.3
Sym=   A
Ene=   0.72
Spin=  Beta
Occup= 1
   1         1.39
   2         0.14
   3        -0.72
   4        -0.87
   5        -0.7
   6        -0.77
   7         0.02
   8         1.5
Sym=   A
Ene=   1.34
Spin=  Beta
Occup= 0
   1         0.66
   2        -1.4
   3         0.98
   4        -0.07
   5        -0.36
   6         1.11
   7        -1.3
   8         0.36
Sym=   A
Ene=   1.34
Spin=  Beta
Occup= 0
   1         0.35
   2        -0.75
   3        -0.92
   4         1.31
   5         1.37
   6        -0.82
   7        -0.79
   8         0.27
Sym=   A
Ene=   3.41
Spin=  Beta
Occup= 0
   1         1.58
   2        -1.5
   3        -1.67
   4         1.56
   5        -1.61
   6         1.5
   7         1.69
   8        -1.55
