[Molden Format]
made by Quiqbox

[Atoms] (AU)
H    1    1         -1.525       -0.88        -0.49
N    2    7          0.0          0.0          0.21
H    3    1          0.0          1.76        -0.49
H    4    1          1.525       -0.88        -0.49

[GTO]
1 0
S    2   1.0
         1.309756377                   0.4301284983
         0.2331359749                  0.6789135305

2 0
S    2   1.0
        37.89647534                    0.4301284983
         6.745553507                   0.6789135305
S    2   1.0
         1.461088772                   0.0494717692
         0.3705706944                  0.9637824081
P    2   1.0
         1.461088772                   0.5115407076
         0.3705706944                  0.6128198961

3 0
S    2   1.0
         1.309756377                   0.4301284983
         0.2331359749                  0.6789135305

4 0
S    2   1.0
         1.309756377                   0.4301284983
         0.2331359749                  0.6789135305

[MO]
Sym=   A
Ene=  -14.815
Spin=  Alpha
Occup= 2
   1        -0.015
   2         0.984
   3         0.067
   4        -0.0
   5         0.0
   6        -0.009
   7        -0.015
   8        -0.015
Sym=   A
Ene=  -1.081
Spin=  Alpha
Occup= 2
   1        -0.172
   2         0.249
   3        -0.715
   4         0.0
   5        -0.0
   6         0.135
   7        -0.172
   8        -0.172
Sym=   A
Ene=  -0.568
Spin=  Alpha
Occup= 2
   1         0.438
   2         0.0
   3        -0.0
   4        -0.58
   5        -0.0
   6        -0.0
   7        -0.0
   8        -0.438
Sym=   A
Ene=  -0.568
Spin=  Alpha
Occup= 2
   1        -0.253
   2         0.0
   3        -0.0
   4        -0.0
   5         0.58
   6        -0.0
   7         0.506
   8        -0.253
Sym=   A
Ene=  -0.329
Spin=  Alpha
Occup= 2
   1         0.131
   2         0.112
   3        -0.472
   4        -0.0
   5         0.0
   6        -0.886
   7         0.131
   8         0.131
Sym=   A
Ene=   0.666
Spin=  Alpha
Occup= 0
   1         0.724
   2         0.242
   3        -1.308
   4         0.0
   5         0.0
   6         0.577
   7         0.724
   8         0.724
Sym=   A
Ene=   0.784
Spin=  Alpha
Occup= 0
   1        -0.861
   2         0.0
   3        -0.0
   4        -1.064
   5         0.0
   6         0.0
   7        -0.0
   8         0.861
Sym=   A
Ene=   0.784
Spin=  Alpha
Occup= 0
   1        -0.497
   2         0.0
   3        -0.0
   4        -0.0
   5        -1.064
   6         0.0
   7         0.994
   8        -0.497
