[Molden Format]
made by Quiqbox

[Atoms] (AU)
X    1    X         -0.6          -0.6          -0.6
X    2    X         -0.6          -0.6           0.6
X    3    X         -0.6           0.6          -0.6
X    4    X         -0.6           0.6           0.6
X    5    X          0.6          -0.6          -0.6
X    6    X          0.6          -0.6           0.6
X    7    X          0.6           0.6          -0.6
X    8    X          0.6           0.6           0.6
N    9    7          0.0           0.0           0.2099
H    10   1          0.0           1.7605       -0.4898
H    11   1          1.5246       -0.8802       -0.4898
H    12   1         -1.5246       -0.8802       -0.4898

[GTO]
1 0
S    3   1.0
         3.425250914                   0.1543289673
         0.6239137298                  0.5353281423
         0.168855404                   0.4446345422

2 0
S    3   1.0
         3.425250914                   0.1543289673
         0.6239137298                  0.5353281423
         0.168855404                   0.4446345422

3 0
S    3   1.0
         3.425250914                   0.1543289673
         0.6239137298                  0.5353281423
         0.168855404                   0.4446345422

4 0
S    3   1.0
         3.425250914                   0.1543289673
         0.6239137298                  0.5353281423
         0.168855404                   0.4446345422

5 0
S    3   1.0
         3.425250914                   0.1543289673
         0.6239137298                  0.5353281423
         0.168855404                   0.4446345422

6 0
S    3   1.0
         3.425250914                   0.1543289673
         0.6239137298                  0.5353281423
         0.168855404                   0.4446345422

7 0
S    3   1.0
         3.425250914                   0.1543289673
         0.6239137298                  0.5353281423
         0.168855404                   0.4446345422

8 0
S    3   1.0
         3.425250914                   0.1543289673
         0.6239137298                  0.5353281423
         0.168855404                   0.4446345422

[MO]
Sym=   A
Ene=  -2.3515
Spin=  Alpha
Occup= 2
   1         0.0654
   2         0.2434
   3         0.0718
   4         0.2213
   5         0.0654
   6         0.2434
   7         0.0718
   8         0.2213
Sym=   A
Ene=  -0.7349
Spin=  Alpha
Occup= 2
   1         0.4294
   2         0.5412
   3         0.2385
   4         0.4336
   5        -0.4294
   6        -0.5412
   7        -0.2385
   8        -0.4337
Sym=   A
Ene=  -0.7181
Spin=  Alpha
Occup= 2
   1         0.3063
   2         0.51
   3        -0.3559
   4        -0.4732
   5         0.3063
   6         0.51
   7        -0.3559
   8        -0.4732
Sym=   A
Ene=  -0.5498
Spin=  Alpha
Occup= 2
   1         0.4569
   2        -0.3505
   3         0.4133
   4        -0.3987
   5         0.4569
   6        -0.3505
   7         0.4133
   8        -0.3987
Sym=   A
Ene=   0.7417
Spin=  Alpha
Occup= 2
   1         1.1143
   2         0.5054
   3        -0.4186
   4        -1.2688
   5        -1.1143
   6        -0.5054
   7         0.4186
   8         1.2688
Sym=   A
Ene=   1.3247
Spin=  Alpha
Occup= 0
   1         0.937
   2        -0.8618
   3        -0.9393
   4         0.8678
   5         0.937
   6        -0.8618
   7        -0.9393
   8         0.8678
Sym=   A
Ene=   1.3378
Spin=  Alpha
Occup= 0
   1         0.6102
   2        -1.233
   3         1.1285
   4        -0.3242
   5        -0.6102
   6         1.233
   7        -1.1284
   8         0.3242
Sym=   A
Ene=   3.4065
Spin=  Alpha
Occup= 0
   1         1.5907
   2        -1.5033
   3        -1.6802
   4         1.5574
   5        -1.5907
   6         1.5033
   7         1.6802
   8        -1.5574
