[Molden Format]
made by Quiqbox

[Atoms] (AU)
F    1    9         -0.8664        0.0           0.0
H    2    1          0.8664        0.0           0.0

[GTO]
1 0
S    2   1.0
        63.73520195                    0.4301284983
        11.34483382                    0.6789135305
S    2   1.0
         2.498548256                   0.0494717692
         0.6336978147                  0.9637824081
P    2   1.0
         2.498548256                   0.5115407076
         0.6336978147                  0.6128198961

2 0
S    2   1.0
         1.309756377                   0.4301284983
         0.2331359749                  0.6789135305

[MO]
Sym=   A
Ene=  -25.0469
Spin=  Alpha
Occup= 2
   1        -0.9873
   2        -0.0476
   3        -0.0053
   4         0.0
   5         0.0
   6         0.0126
Sym=   A
Ene=  -1.4168
Spin=  Alpha
Occup= 2
   1        -0.2867
   2         0.9238
   3         0.0847
   4         0.0
   5         0.0
   6         0.1884
Sym=   A
Ene=  -0.5381
Spin=  Alpha
Occup= 2
   1         0.1085
   2        -0.4669
   3         0.6755
   4         0.0
   5         0.0
   6         0.5535
Sym=   A
Ene=  -0.3986
Spin=  Alpha
Occup= 2
   1         0.0
   2         0.0
   3         0.0
   4         1.0
   5         0.0
   6         0.0
Sym=   A
Ene=  -0.3986
Spin=  Alpha
Occup= 2
   1         0.0
   2         0.0
   3         0.0
   4         0.0
   5         1.0
   6         0.0
Sym=   A
Ene=   0.6926
Spin=  Alpha
Occup= 0
   1         0.1087
   2        -0.5557
   3        -0.8417
   4         0.0
   5         0.0
   6         1.0593
