[Molden Format]
made by Quiqbox

[Atoms] (AU)
X    1    X         -0.60000       -0.60000       -0.60000
X    2    X         -0.60000       -0.60000        0.60000
X    3    X         -0.60000        0.60000       -0.60000
X    4    X         -0.60000        0.60000        0.60000
X    5    X          0.60000       -0.60000       -0.60000
X    6    X          0.60000       -0.60000        0.60000
X    7    X          0.60000        0.60000       -0.60000
X    8    X          0.60000        0.60000        0.60000
N    9    7          0.00000        0.00000        0.20995
H    10   1          0.00000        1.76047       -0.48982
H    11   1          1.52463       -0.88023       -0.48982
H    12   1         -1.52463       -0.88023       -0.48982

[GTO]
1 0
S    3   1.0
         3.425250914                   0.1543289673
         0.6239137298                  0.5353281423
         0.168855404                   0.4446345422

2 0
S    3   1.0
         3.425250914                   0.1543289673
         0.6239137298                  0.5353281423
         0.168855404                   0.4446345422

3 0
S    3   1.0
         3.425250914                   0.1543289673
         0.6239137298                  0.5353281423
         0.168855404                   0.4446345422

4 0
S    3   1.0
         3.425250914                   0.1543289673
         0.6239137298                  0.5353281423
         0.168855404                   0.4446345422

5 0
S    3   1.0
         3.425250914                   0.1543289673
         0.6239137298                  0.5353281423
         0.168855404                   0.4446345422

6 0
S    3   1.0
         3.425250914                   0.1543289673
         0.6239137298                  0.5353281423
         0.168855404                   0.4446345422

7 0
S    3   1.0
         3.425250914                   0.1543289673
         0.6239137298                  0.5353281423
         0.168855404                   0.4446345422

8 0
S    3   1.0
         3.425250914                   0.1543289673
         0.6239137298                  0.5353281423
         0.168855404                   0.4446345422

[MO]
Sym=   A
Ene=  -2.35377
Spin=  Alpha
Occup= 1
   1         0.05377
   2         0.24752
   3         0.06382
   4         0.24153
   5         0.07620
   6         0.23717
   7         0.07574
   8         0.20757
Sym=   A
Ene=  -0.74988
Spin=  Alpha
Occup= 1
   1         0.14353
   2         0.26113
   3         0.28330
   4         0.69385
   5        -0.61650
   6        -0.62561
   7        -0.09187
   8        -0.08635
Sym=   A
Ene=  -0.71097
Spin=  Alpha
Occup= 1
   1         0.39465
   2         0.77006
   3        -0.21851
   4        -0.19261
   5         0.03243
   6         0.20427
   7        -0.48848
   8        -0.55179
Sym=   A
Ene=  -0.54284
Spin=  Alpha
Occup= 1
   1         0.51607
   2        -0.19521
   3         0.46179
   4        -0.30486
   5         0.37630
   6        -0.48042
   7         0.34407
   8        -0.47916
Sym=   A
Ene=   0.71935
Spin=  Alpha
Occup= 1
   1         0.70033
   2         0.76898
   3        -0.02340
   4        -1.50022
   5        -1.38969
   6        -0.13613
   7         0.72132
   8         0.86740
Sym=   A
Ene=   1.34151
Spin=  Alpha
Occup= 0
   1         0.36643
   2        -1.11372
   3         1.29772
   4        -0.35893
   5        -0.66075
   6         1.39299
   7        -0.98618
   8         0.07172
Sym=   A
Ene=   1.34473
Spin=  Alpha
Occup= 0
   1         1.36406
   2        -0.81919
   3        -0.79640
   4         0.27194
   5         0.35573
   6        -0.75802
   7        -0.92113
   8         1.31452
Sym=   A
Ene=   3.40843
Spin=  Alpha
Occup= 0
   1         1.60702
   2        -1.50005
   3        -1.68797
   4         1.54604
   5        -1.57815
   6         1.50325
   7         1.67361
   8        -1.56313
Sym=   A
Ene=  -2.35377
Spin=  Beta
Occup= 1
   1         0.07620
   2         0.23718
   3         0.07574
   4         0.20756
   5         0.05376
   6         0.24752
   7         0.06383
   8         0.24153
Sym=   A
Ene=  -0.74988
Spin=  Beta
Occup= 1
   1         0.61646
   2         0.62571
   3         0.09175
   4         0.08625
   5        -0.14346
   6        -0.26096
   7        -0.28339
   8        -0.69386
Sym=   A
Ene=  -0.71099
Spin=  Beta
Occup= 1
   1         0.03227
   2         0.20417
   3        -0.48853
   4        -0.55177
   5         0.39462
   6         0.77014
   7        -0.21848
   8        -0.19243
Sym=   A
Ene=  -0.54283
Spin=  Beta
Occup= 1
   1         0.37634
   2        -0.48035
   3         0.34403
   4        -0.47921
   5         0.51609
   6        -0.19515
   7         0.46176
   8        -0.30494
Sym=   A
Ene=   0.71936
Spin=  Beta
Occup= 1
   1         1.38958
   2         0.13637
   3        -0.72159
   4        -0.86729
   5        -0.70016
   6        -0.76927
   7         0.02360
   8         1.50017
Sym=   A
Ene=   1.34149
Spin=  Beta
Occup= 0
   1         0.66229
   2        -1.39564
   3         0.98276
   4        -0.06723
   5        -0.36171
   6         1.11064
   7        -1.30055
   8         0.36020
Sym=   A
Ene=   1.34474
Spin=  Beta
Occup= 0
   1         0.35328
   2        -0.75307
   3        -0.92459
   4         1.31482
   5         1.36540
   6        -0.82309
   7        -0.79178
   8         0.27056
Sym=   A
Ene=   3.40843
Spin=  Beta
Occup= 0
   1         1.57816
   2        -1.50325
   3        -1.67360
   4         1.56313
   5        -1.60703
   6         1.50004
   7         1.68797
   8        -1.54604
