[Molden Format]
made by Quiqbox

[Atoms] (AU)
H    1    1         -1.52       -0.88       -0.49
N    2    7          0.0         0.0         0.21
H    3    1          0.0         1.76       -0.49
H    4    1          1.52       -0.88       -0.49

[GTO]
1 0
S    2   1.0
         1.309756377                   0.4301284983
         0.2331359749                  0.6789135305

2 0
S    2   1.0
        37.89647534                    0.4301284983
         6.745553507                   0.6789135305
S    2   1.0
         1.461088772                   0.0494717692
         0.3705706944                  0.9637824081
P    2   1.0
         1.461088772                   0.5115407076
         0.3705706944                  0.6128198961

3 0
S    2   1.0
         1.309756377                   0.4301284983
         0.2331359749                  0.6789135305

4 0
S    2   1.0
         1.309756377                   0.4301284983
         0.2331359749                  0.6789135305

[MO]
Sym=   A
Ene=  -14.81
Spin=  Alpha
Occup= 1
   1        -0.02
   2         0.98
   3         0.07
   4         0.0
   5         0.0
   6        -0.01
   7        -0.02
   8        -0.02
Sym=   A
Ene=  -1.08
Spin=  Alpha
Occup= 1
   1        -0.17
   2         0.25
   3        -0.71
   4         0.0
   5        -0.0
   6         0.13
   7        -0.17
   8        -0.17
Sym=   A
Ene=  -0.57
Spin=  Alpha
Occup= 1
   1        -0.31
   2         0.0
   3        -0.0
   4         0.54
   5        -0.22
   6         0.0
   7        -0.19
   8         0.5
Sym=   A
Ene=  -0.57
Spin=  Alpha
Occup= 1
   1        -0.4
   2         0.0
   3        -0.0
   4         0.22
   5         0.54
   6        -0.0
   7         0.47
   8        -0.07
Sym=   A
Ene=  -0.33
Spin=  Alpha
Occup= 1
   1         0.13
   2         0.11
   3        -0.47
   4        -0.0
   5         0.0
   6        -0.89
   7         0.13
   8         0.13
Sym=   A
Ene=   0.67
Spin=  Alpha
Occup= 0
   1         0.72
   2         0.24
   3        -1.31
   4        -0.0
   5         0.0
   6         0.58
   7         0.72
   8         0.72
Sym=   A
Ene=   0.78
Spin=  Alpha
Occup= 0
   1         0.8
   2         0.0
   3        -0.0
   4         1.06
   5        -0.12
   6        -0.0
   7         0.11
   8        -0.91
Sym=   A
Ene=   0.78
Spin=  Alpha
Occup= 0
   1        -0.59
   2         0.0
   3        -0.0
   4        -0.12
   5        -1.06
   6         0.0
   7         0.99
   8        -0.4
Sym=   A
Ene=  -14.81
Spin=  Beta
Occup= 1
   1        -0.02
   2         0.98
   3         0.07
   4        -0.0
   5         0.0
   6        -0.01
   7        -0.02
   8        -0.02
Sym=   A
Ene=  -1.08
Spin=  Beta
Occup= 1
   1        -0.17
   2         0.25
   3        -0.71
   4        -0.0
   5        -0.0
   6         0.13
   7        -0.17
   8        -0.17
Sym=   A
Ene=  -0.57
Spin=  Beta
Occup= 1
   1        -0.45
   2         0.0
   3        -0.0
   4         0.31
   5         0.49
   6        -0.0
   7         0.43
   8         0.02
Sym=   A
Ene=  -0.57
Spin=  Beta
Occup= 1
   1         0.23
   2         0.0
   3        -0.0
   4        -0.49
   5         0.31
   6         0.0
   7         0.27
   8        -0.51
Sym=   A
Ene=  -0.33
Spin=  Beta
Occup= 1
   1         0.13
   2         0.11
   3        -0.47
   4         0.0
   5        -0.0
   6        -0.89
   7         0.13
   8         0.13
Sym=   A
Ene=   0.67
Spin=  Beta
Occup= 0
   1         0.72
   2         0.24
   3        -1.31
   4         0.0
   5         0.0
   6         0.58
   7         0.72
   8         0.72
Sym=   A
Ene=   0.78
Spin=  Beta
Occup= 0
   1        -0.93
   2         0.0
   3        -0.0
   4        -1.05
   5        -0.18
   6         0.0
   7         0.17
   8         0.76
Sym=   A
Ene=   0.78
Spin=  Beta
Occup= 0
   1        -0.34
   2         0.0
   3        -0.0
   4         0.18
   5        -1.05
   6         0.0
   7         0.98
   8        -0.64
