[Molden Format]
made by Quiqbox

[Atoms] (AU)
X    1    X         -0.6        -0.6        -0.6
X    2    X         -0.6        -0.6         0.6
X    3    X         -0.6         0.6        -0.6
X    4    X         -0.6         0.6         0.6
X    5    X          0.6        -0.6        -0.6
X    6    X          0.6        -0.6         0.6
X    7    X          0.6         0.6        -0.6
X    8    X          0.6         0.6         0.6
N    9    7          0.0         0.0         0.21
H    10   1          0.0         1.76       -0.49
H    11   1          1.52       -0.88       -0.49
H    12   1         -1.52       -0.88       -0.49

[GTO]
1 0
S    3   1.0
         3.425250914                   0.1543289673
         0.6239137298                  0.5353281423
         0.168855404                   0.4446345422

2 0
S    3   1.0
         3.425250914                   0.1543289673
         0.6239137298                  0.5353281423
         0.168855404                   0.4446345422

3 0
S    3   1.0
         3.425250914                   0.1543289673
         0.6239137298                  0.5353281423
         0.168855404                   0.4446345422

4 0
S    3   1.0
         3.425250914                   0.1543289673
         0.6239137298                  0.5353281423
         0.168855404                   0.4446345422

5 0
S    3   1.0
         3.425250914                   0.1543289673
         0.6239137298                  0.5353281423
         0.168855404                   0.4446345422

6 0
S    3   1.0
         3.425250914                   0.1543289673
         0.6239137298                  0.5353281423
         0.168855404                   0.4446345422

7 0
S    3   1.0
         3.425250914                   0.1543289673
         0.6239137298                  0.5353281423
         0.168855404                   0.4446345422

8 0
S    3   1.0
         3.425250914                   0.1543289673
         0.6239137298                  0.5353281423
         0.168855404                   0.4446345422

[MO]
Sym=   A
Ene=  -2.35
Spin=  Alpha
Occup= 2
   1         0.07
   2         0.24
   3         0.07
   4         0.22
   5         0.07
   6         0.24
   7         0.07
   8         0.22
Sym=   A
Ene=  -0.73
Spin=  Alpha
Occup= 2
   1         0.43
   2         0.54
   3         0.24
   4         0.43
   5        -0.43
   6        -0.54
   7        -0.24
   8        -0.43
Sym=   A
Ene=  -0.72
Spin=  Alpha
Occup= 2
   1         0.31
   2         0.51
   3        -0.36
   4        -0.47
   5         0.31
   6         0.51
   7        -0.36
   8        -0.47
Sym=   A
Ene=  -0.55
Spin=  Alpha
Occup= 2
   1         0.46
   2        -0.35
   3         0.41
   4        -0.4
   5         0.46
   6        -0.35
   7         0.41
   8        -0.4
Sym=   A
Ene=   0.74
Spin=  Alpha
Occup= 2
   1         1.11
   2         0.51
   3        -0.42
   4        -1.27
   5        -1.11
   6        -0.51
   7         0.42
   8         1.27
Sym=   A
Ene=   1.32
Spin=  Alpha
Occup= 0
   1         0.94
   2        -0.86
   3        -0.94
   4         0.87
   5         0.94
   6        -0.86
   7        -0.94
   8         0.87
Sym=   A
Ene=   1.34
Spin=  Alpha
Occup= 0
   1         0.61
   2        -1.23
   3         1.13
   4        -0.32
   5        -0.61
   6         1.23
   7        -1.13
   8         0.32
Sym=   A
Ene=   3.41
Spin=  Alpha
Occup= 0
   1         1.59
   2        -1.5
   3        -1.68
   4         1.56
   5        -1.59
   6         1.5
   7         1.68
   8        -1.56
