[Molden Format]
made by Quiqbox

[Atoms] (AU)
H    1    1         -1.524631       -0.880234       -0.489817
N    2    7          0.0             0.0             0.209949
H    3    1          0.0             1.760469       -0.489817
H    4    1          1.524631       -0.880234       -0.489817

[GTO]
1 0
S    3   1.0
         3.425250914                   0.1543289673
         0.6239137298                  0.5353281423
         0.168855404                   0.4446345422

2 0
S    3   1.0
        99.10616896                    0.1543289673
        18.05231239                    0.5353281423
         4.885660238                   0.4446345422
S    3   1.0
         3.780455879                  -0.09996722919
         0.8784966449                  0.3995128261
         0.2857143744                  0.7001154689
P    3   1.0
         3.780455879                   0.155916275
         0.8784966449                  0.6076837186
         0.2857143744                  0.3919573931

3 0
S    3   1.0
         3.425250914                   0.1543289673
         0.6239137298                  0.5353281423
         0.168855404                   0.4446345422

4 0
S    3   1.0
         3.425250914                   0.1543289673
         0.6239137298                  0.5353281423
         0.168855404                   0.4446345422

[MO]
Sym=   A
Ene=  -15.302787
Spin=  Alpha
Occup= 2
   1        -0.006812
   2         0.993334
   3         0.03241
   4        -0.0
   5         0.0
   6        -0.004996
   7        -0.006812
   8        -0.006812
Sym=   A
Ene=  -1.094608
Spin=  Alpha
Occup= 2
   1        -0.15998
   2         0.219661
   3        -0.733068
   4         0.0
   5        -5.0e-6
   6         0.1364
   7        -0.159985
   8        -0.15998
Sym=   A
Ene=  -0.577769
Spin=  Alpha
Occup= 2
   1         0.427597
   2         0.0
   3        -0.0
   4        -0.593408
   5        -2.4e-5
   6        -0.0
   7        -2.0e-5
   8        -0.427578
Sym=   A
Ene=  -0.577767
Spin=  Alpha
Occup= 2
   1        -0.246855
   2         2.0e-6
   3        -1.1e-5
   4        -2.4e-5
   5         0.593404
   6        -9.0e-6
   7         0.49374
   8        -0.246888
Sym=   A
Ene=  -0.352143
Spin=  Alpha
Occup= 2
   1         0.11722
   2         0.087279
   3        -0.438744
   4        -0.0
   5         1.0e-6
   6        -0.897927
   7         0.117201
   8         0.11722
Sym=   A
Ene=   0.650203
Spin=  Alpha
Occup= 0
   1         0.723759
   2         0.18702
   3        -1.293505
   4         0.0
   5         5.0e-5
   6         0.557477
   7         0.723689
   8         0.723759
Sym=   A
Ene=   0.742954
Spin=  Alpha
Occup= 0
   1        -0.873932
   2         0.0
   3        -0.0
   4        -1.062567
   5         7.6e-5
   6         0.0
   7        -7.2e-5
   8         0.874004
Sym=   A
Ene=   0.742959
Spin=  Alpha
Occup= 0
   1        -0.504609
   2         1.1e-5
   3        -7.8e-5
   4        -7.6e-5
   5        -1.06257
   6         2.5e-5
   7         1.009215
   8        -0.504484
