[Molden Format]
made by Quiqbox

[Atoms] (AU)
X    1    X         -0.6        -0.6        -0.6
X    2    X         -0.6        -0.6         0.6
X    3    X         -0.6         0.6        -0.6
X    4    X         -0.6         0.6         0.6
X    5    X          0.6        -0.6        -0.6
X    6    X          0.6        -0.6         0.6
X    7    X          0.6         0.6        -0.6
X    8    X          0.6         0.6         0.6
H    9    1          0.7         0.0         0.0
H    10   1         -0.7         0.0         0.0

[GTO]
1 0
S    2   1.0
         1.309756377                   0.4301284983
         0.2331359749                  0.6789135305

2 0
S    2   1.0
         1.309756377                   0.4301284983
         0.2331359749                  0.6789135305

3 0
S    2   1.0
         1.309756377                   0.4301284983
         0.2331359749                  0.6789135305

4 0
S    2   1.0
         1.309756377                   0.4301284983
         0.2331359749                  0.6789135305

5 0
S    2   1.0
         1.309756377                   0.4301284983
         0.2331359749                  0.6789135305

6 0
S    2   1.0
         1.309756377                   0.4301284983
         0.2331359749                  0.6789135305

7 0
S    2   1.0
         1.309756377                   0.4301284983
         0.2331359749                  0.6789135305

8 0
S    2   1.0
         1.309756377                   0.4301284983
         0.2331359749                  0.6789135305

[MO]
Sym=   A
Ene=  -0.54
Spin=  Alpha
Occup= 2
   1         0.15
   2         0.15
   3         0.15
   4         0.15
   5         0.15
   6         0.15
   7         0.15
   8         0.15
Sym=   A
Ene=   0.58
Spin=  Alpha
Occup= 0
   1         0.41
   2         0.41
   3         0.41
   4         0.41
   5        -0.41
   6        -0.41
   7        -0.41
   8        -0.41
Sym=   A
Ene=   0.79
Spin=  Alpha
Occup= 0
   1         0.43
   2         0.4
   3        -0.4
   4        -0.43
   5         0.43
   6         0.4
   7        -0.4
   8        -0.43
Sym=   A
Ene=   0.79
Spin=  Alpha
Occup= 0
   1         0.4
   2        -0.43
   3         0.43
   4        -0.4
   5         0.4
   6        -0.43
   7         0.43
   8        -0.4
Sym=   A
Ene=   2.07
Spin=  Alpha
Occup= 0
   1         0.79
   2        -1.0
   3         1.0
   4        -0.79
   5        -0.79
   6         1.0
   7        -1.0
   8         0.79
Sym=   A
Ene=   2.07
Spin=  Alpha
Occup= 0
   1         1.0
   2         0.79
   3        -0.79
   4        -1.0
   5        -1.0
   6        -0.79
   7         0.79
   8         1.0
Sym=   A
Ene=   2.18
Spin=  Alpha
Occup= 0
   1         0.9
   2        -0.9
   3        -0.9
   4         0.9
   5         0.9
   6        -0.9
   7        -0.9
   8         0.9
Sym=   A
Ene=   3.69
Spin=  Alpha
Occup= 0
   1         1.59
   2        -1.59
   3        -1.59
   4         1.59
   5        -1.59
   6         1.59
   7         1.59
   8        -1.59
