[Molden Format]
made by Quiqbox

[Atoms] (AU)
X    1    X         -0.60000        -0.60000        -0.60000
X    2    X         -0.60000        -0.60000         0.60000
X    3    X         -0.60000         0.60000        -0.60000
X    4    X         -0.60000         0.60000         0.60000
X    5    X          0.60000        -0.60000        -0.60000
X    6    X          0.60000        -0.60000         0.60000
X    7    X          0.60000         0.60000        -0.60000
X    8    X          0.60000         0.60000         0.60000
N    9    7          0.00000         0.00000         0.20995
H    10   1          0.00000         1.76047        -0.48982
H    11   1          1.52463        -0.88023        -0.48982
H    12   1         -1.52463        -0.88023        -0.48982

[GTO]
1 0
S    3   1.0
         3.425250914               0.1543289673
         0.6239137298              0.5353281423
         0.168855404               0.4446345422

2 0
S    3   1.0
         3.425250914               0.1543289673
         0.6239137298              0.5353281423
         0.168855404               0.4446345422

3 0
S    3   1.0
         3.425250914               0.1543289673
         0.6239137298              0.5353281423
         0.168855404               0.4446345422

4 0
S    3   1.0
         3.425250914               0.1543289673
         0.6239137298              0.5353281423
         0.168855404               0.4446345422

5 0
S    3   1.0
         3.425250914               0.1543289673
         0.6239137298              0.5353281423
         0.168855404               0.4446345422

6 0
S    3   1.0
         3.425250914               0.1543289673
         0.6239137298              0.5353281423
         0.168855404               0.4446345422

7 0
S    3   1.0
         3.425250914               0.1543289673
         0.6239137298              0.5353281423
         0.168855404               0.4446345422

8 0
S    3   1.0
         3.425250914               0.1543289673
         0.6239137298              0.5353281423
         0.168855404               0.4446345422

[MO]
Sym=   A
Ene=  -2.35145
Spin=  Alpha
Occup= 2
   1         0.06543
   2         0.24344
   3         0.07184
   4         0.22134
   5         0.06543
   6         0.24344
   7         0.07184
   8         0.22134
Sym=   A
Ene=  -0.73489
Spin=  Alpha
Occup= 2
   1         0.42945
   2         0.54120
   3         0.23849
   4         0.43365
   5        -0.42945
   6        -0.54123
   7        -0.23846
   8        -0.43365
Sym=   A
Ene=  -0.71808
Spin=  Alpha
Occup= 2
   1         0.30630
   2         0.51000
   3        -0.35592
   4        -0.47318
   5         0.30628
   6         0.50999
   7        -0.35593
   8        -0.47320
Sym=   A
Ene=  -0.54978
Spin=  Alpha
Occup= 2
   1         0.45694
   2        -0.35054
   3         0.41334
   4        -0.39868
   5         0.45695
   6        -0.35052
   7         0.41335
   8        -0.39866
Sym=   A
Ene=   0.74167
Spin=  Alpha
Occup= 2
   1         1.11410
   2         0.50570
   3        -0.41889
   4        -1.26872
   5        -1.11417
   6        -0.50564
   7         0.41895
   8         1.26865
Sym=   A
Ene=   1.32467
Spin=  Alpha
Occup= 0
   1         0.93751
   2        -0.86267
   3        -0.93847
   4         0.86752
   5         0.93655
   6        -0.86092
   7        -0.94007
   8         0.86808
Sym=   A
Ene=   1.33782
Spin=  Alpha
Occup= 0
   1         0.60980
   2        -1.23225
   3         1.12902
   4        -0.32514
   5        -0.61116
   6         1.23350
   7        -1.12766
   8         0.32389
Sym=   A
Ene=   3.40646
Spin=  Alpha
Occup= 0
   1         1.59065
   2        -1.50331
   3        -1.68019
   4         1.55744
   5        -1.59065
   6         1.50331
   7         1.68019
   8        -1.55744
