[Molden Format]
made by Quiqbox

[Atoms] (AU)
X    1    X         -0.60000        -0.60000        -0.60000
X    2    X         -0.60000        -0.60000         0.60000
X    3    X         -0.60000         0.60000        -0.60000
X    4    X         -0.60000         0.60000         0.60000
X    5    X          0.60000        -0.60000        -0.60000
X    6    X          0.60000        -0.60000         0.60000
X    7    X          0.60000         0.60000        -0.60000
X    8    X          0.60000         0.60000         0.60000
N    9    7          0.00000         0.00000         0.20995
H    10   1          0.00000         1.76047        -0.48982
H    11   1          1.52463        -0.88023        -0.48982
H    12   1         -1.52463        -0.88023        -0.48982

[GTO]
1 0
S    3   1.0
         3.42525         0.15433
         0.62391         0.53533
         0.16886         0.44463

2 0
S    3   1.0
         3.42525         0.15433
         0.62391         0.53533
         0.16886         0.44463

3 0
S    3   1.0
         3.42525         0.15433
         0.62391         0.53533
         0.16886         0.44463

4 0
S    3   1.0
         3.42525         0.15433
         0.62391         0.53533
         0.16886         0.44463

5 0
S    3   1.0
         3.42525         0.15433
         0.62391         0.53533
         0.16886         0.44463

6 0
S    3   1.0
         3.42525         0.15433
         0.62391         0.53533
         0.16886         0.44463

7 0
S    3   1.0
         3.42525         0.15433
         0.62391         0.53533
         0.16886         0.44463

8 0
S    3   1.0
         3.42525         0.15433
         0.62391         0.53533
         0.16886         0.44463

[MO]
Sym=   A
Ene=  -2.35165
Spin=  Alpha
Occup= 1
   1         0.06231
   2         0.24451
   3         0.06655
   4         0.23157
   5         0.07200
   6         0.23843
   7         0.07303
   8         0.21560
Sym=   A
Ene=  -0.73986
Spin=  Alpha
Occup= 1
   1         0.25902
   2         0.37744
   3         0.28084
   4         0.61444
   5        -0.56894
   6        -0.61758
   7        -0.15034
   8        -0.21853
Sym=   A
Ene=  -0.71148
Spin=  Alpha
Occup= 1
   1         0.41468
   2         0.67349
   3        -0.24870
   4        -0.32282
   5         0.16130
   6         0.29502
   7        -0.42733
   8        -0.57105
Sym=   A
Ene=  -0.55214
Spin=  Alpha
Occup= 1
   1         0.48399
   2        -0.29436
   3         0.45189
   4        -0.33126
   5         0.40478
   6        -0.44122
   7         0.39064
   8        -0.42301
Sym=   A
Ene=   0.73012
Spin=  Alpha
Occup= 1
   1         0.92311
   2         0.60798
   3        -0.15047
   4        -1.43645
   5        -1.31877
   6        -0.24419
   7         0.55101
   8         1.07194
Sym=   A
Ene=   1.33011
Spin=  Alpha
Occup= 0
   1         1.22152
   2        -0.91832
   3        -0.81602
   4         0.53209
   5         0.58993
   6        -0.74880
   7        -1.00202
   8         1.14776
Sym=   A
Ene=   1.34388
Spin=  Alpha
Occup= 0
   1         0.38219
   2        -1.14082
   3         1.27875
   4        -0.33456
   5        -0.63878
   6         1.38176
   7        -1.01321
   8         0.08920
Sym=   A
Ene=   3.40750
Spin=  Alpha
Occup= 0
   1         1.59562
   2        -1.50219
   3        -1.68534
   4         1.55240
   5        -1.58099
   6         1.50463
   7         1.67811
   8        -1.56200
Sym=   A
Ene=  -2.35226
Spin=  Beta
Occup= 1
   1         0.06730
   2         0.24400
   3         0.07544
   4         0.21311
   5         0.05836
   6         0.24672
   7         0.07150
   8         0.22737
Sym=   A
Ene=  -0.74162
Spin=  Beta
Occup= 1
   1         0.54816
   2         0.69855
   3         0.05772
   4         0.12975
   5        -0.19575
   6        -0.24393
   7        -0.35411
   8        -0.63655
Sym=   A
Ene=  -0.71899
Spin=  Beta
Occup= 1
   1         0.03448
   2         0.20066
   3        -0.47273
   4        -0.57354
   5         0.41748
   6         0.75306
   7        -0.21759
   8        -0.18573
Sym=   A
Ene=  -0.54233
Spin=  Beta
Occup= 1
   1         0.43644
   2        -0.38410
   3         0.37009
   4        -0.45666
   5         0.49477
   6        -0.25824
   7         0.42510
   8        -0.38662
Sym=   A
Ene=   0.73579
Spin=  Beta
Occup= 1
   1         1.21716
   2         0.43512
   3        -0.67920
   4        -1.05286
   5        -0.86009
   6        -0.76199
   7         0.32062
   8         1.37892
Sym=   A
Ene=   1.33112
Spin=  Beta
Occup= 0
   1         0.94155
   2        -1.35589
   3        -0.32542
   4         0.82779
   5         0.74887
   6        -0.19663
   7        -1.36568
   8         0.73417
Sym=   A
Ene=   1.33795
Spin=  Beta
Occup= 0
   1         0.35224
   2        -0.70065
   3         1.33098
   4        -0.82739
   5        -1.08919
   6         1.37359
   7        -0.60095
   8         0.15277
Sym=   A
Ene=   3.40678
Spin=  Beta
Occup= 0
   1         1.58894
   2        -1.50316
   3        -1.67490
   4         1.56058
   5        -1.60180
   6         1.50108
   7         1.68104
   8        -1.55204
