[Molden Format]
made by Quiqbox

[Atoms] (AU)
X    1    X         -1.524631       -0.880234       -0.489817
X    2    X          0.0             0.0             0.209949
X    3    X          0.0             1.760469       -0.489817
X    4    X          1.524631       -0.880234       -0.489817
H    5    1          0.700144        0.0             0.0
H    6    1         -0.700144        0.0             0.0

[GTO]
1 0
S    2   1.0
         1.309756377                   0.4301284983
         0.2331359749                  0.6789135305

2 0
S    2   1.0
         1.309756377                   0.4301284983
         0.2331359749                  0.6789135305

3 0
S    2   1.0
         1.309756377                   0.4301284983
         0.2331359749                  0.6789135305

4 0
S    2   1.0
         1.309756377                   0.4301284983
         0.2331359749                  0.6789135305

[MO]
Sym=   A
Ene=  -0.489767
Spin=  Alpha
Occup= 2
   1         0.143567
   2         0.793382
   3         0.094803
   4         0.143568
Sym=   A
Ene=   0.738671
Spin=  Alpha
Occup= 0
   1        -0.796859
   2         2.0e-6
   3         5.0e-6
   4         0.796849
Sym=   A
Ene=   0.817927
Spin=  Alpha
Occup= 0
   1        -0.48169
   2         0.074954
   3         0.896582
   4        -0.481701
Sym=   A
Ene=   1.192789
Spin=  Alpha
Occup= 0
   1        -0.664889
   2         1.19592
   3        -0.718929
   4        -0.664892
