[Molden Format]
made by Quiqbox

[Atoms] (AU)
F    1    9         -0.866        0.0          0.0
H    2    1          0.866        0.0          0.0

[GTO]
1 0
S    2   1.0
        63.73520195                    0.4301284983
        11.34483382                    0.6789135305
S    2   1.0
         2.498548256                   0.0494717692
         0.6336978147                  0.9637824081
P    2   1.0
         2.498548256                   0.5115407076
         0.6336978147                  0.6128198961

2 0
S    2   1.0
         1.309756377                   0.4301284983
         0.2331359749                  0.6789135305

[MO]
Sym=   A
Ene=  -25.047
Spin=  Alpha
Occup= 1
   1        -0.987
   2        -0.048
   3        -0.005
   4         0.0
   5         0.0
   6         0.013
Sym=   A
Ene=  -1.417
Spin=  Alpha
Occup= 1
   1        -0.287
   2         0.924
   3         0.085
   4         0.0
   5         0.0
   6         0.188
Sym=   A
Ene=  -0.538
Spin=  Alpha
Occup= 1
   1         0.109
   2        -0.467
   3         0.676
   4         0.0
   5         0.0
   6         0.553
Sym=   A
Ene=  -0.399
Spin=  Alpha
Occup= 1
   1         0.0
   2         0.0
   3         0.0
   4         1.0
   5         0.0
   6         0.0
Sym=   A
Ene=  -0.399
Spin=  Alpha
Occup= 1
   1         0.0
   2         0.0
   3         0.0
   4         0.0
   5         1.0
   6         0.0
Sym=   A
Ene=   0.693
Spin=  Alpha
Occup= 0
   1         0.109
   2        -0.556
   3        -0.842
   4         0.0
   5         0.0
   6         1.059
Sym=   A
Ene=  -25.047
Spin=  Beta
Occup= 1
   1        -0.987
   2        -0.048
   3        -0.005
   4         0.0
   5         0.0
   6         0.013
Sym=   A
Ene=  -1.417
Spin=  Beta
Occup= 1
   1        -0.287
   2         0.924
   3         0.085
   4         0.0
   5         0.0
   6         0.188
Sym=   A
Ene=  -0.538
Spin=  Beta
Occup= 1
   1         0.109
   2        -0.467
   3         0.675
   4         0.0
   5         0.0
   6         0.554
Sym=   A
Ene=  -0.399
Spin=  Beta
Occup= 1
   1         0.0
   2         0.0
   3         0.0
   4         1.0
   5         0.0
   6         0.0
Sym=   A
Ene=  -0.399
Spin=  Beta
Occup= 1
   1         0.0
   2         0.0
   3         0.0
   4         0.0
   5         1.0
   6         0.0
Sym=   A
Ene=   0.693
Spin=  Beta
Occup= 0
   1         0.109
   2        -0.556
   3        -0.842
   4         0.0
   5         0.0
   6         1.059
