[Molden Format]
made by Quiqbox

[Atoms] (AU)
F    1    9         -0.86644         0.00000         0.00000
H    2    1          0.86644         0.00000         0.00000

[GTO]
1 0
S    3   1.0
       166.679134                  0.1543289673
        30.36081233                0.5353281423
         8.216820672               0.4446345422
S    3   1.0
         6.464803249              -0.09996722919
         1.502281245               0.3995128261
         0.4885884864              0.7001154689
P    3   1.0
         6.464803249               0.155916275
         1.502281245               0.6076837186
         0.4885884864              0.3919573931

2 0
S    3   1.0
         3.425250914               0.1543289673
         0.6239137298              0.5353281423
         0.168855404               0.4446345422

[MO]
Sym=   A
Ene=  -25.90003
Spin=  Alpha
Occup= 2
   1        -0.99470
   2        -0.02264
   3        -0.00296
   4         0.00000
   5         0.00000
   6         0.00578
Sym=   A
Ene=  -1.47120
Spin=  Alpha
Occup= 2
   1        -0.24919
   2         0.93624
   3         0.08988
   4         0.00000
   5         0.00000
   6         0.15845
Sym=   A
Ene=  -0.58517
Spin=  Alpha
Occup= 2
   1         0.08249
   2        -0.43467
   3         0.70214
   4         0.00000
   5         0.00000
   6         0.52137
Sym=   A
Ene=  -0.46417
Spin=  Alpha
Occup= 2
   1         0.00000
   2         0.00000
   3         0.00000
   4         1.00000
   5         0.00000
   6         0.00000
Sym=   A
Ene=  -0.46417
Spin=  Alpha
Occup= 2
   1         0.00000
   2         0.00000
   3         0.00000
   4         0.00000
   5         1.00000
   6         0.00000
Sym=   A
Ene=   0.62903
Spin=  Alpha
Occup= 0
   1         0.08489
   2        -0.55948
   3        -0.82470
   4         0.00000
   5         0.00000
   6         1.09032
