[Molden Format]
made by Quiqbox

[Atoms] (AU)
X    1    X         -1.5246       -0.8802       -0.4898
X    2    X          0.0           0.0           0.2099
X    3    X          0.0           1.7605       -0.4898
X    4    X          1.5246       -0.8802       -0.4898
H    5    1          0.7001        0.0           0.0
H    6    1         -0.7001        0.0           0.0

[GTO]
1 0
S    2   1.0
         1.309756377                   0.4301284983
         0.2331359749                  0.6789135305

2 0
S    2   1.0
         1.309756377                   0.4301284983
         0.2331359749                  0.6789135305

3 0
S    2   1.0
         1.309756377                   0.4301284983
         0.2331359749                  0.6789135305

4 0
S    2   1.0
         1.309756377                   0.4301284983
         0.2331359749                  0.6789135305

[MO]
Sym=   A
Ene=  -0.4897
Spin=  Alpha
Occup= 1
   1         0.1436
   2         0.7934
   3         0.0948
   4         0.1435
Sym=   A
Ene=   0.7387
Spin=  Alpha
Occup= 0
   1        -0.797
   2         0.0001
   3         0.0003
   4         0.7967
Sym=   A
Ene=   0.8179
Spin=  Alpha
Occup= 0
   1        -0.4813
   2         0.0749
   3         0.8967
   4        -0.4819
Sym=   A
Ene=   1.1928
Spin=  Alpha
Occup= 0
   1        -0.6649
   2         1.1959
   3        -0.7188
   4        -0.665
Sym=   A
Ene=  -0.4897
Spin=  Beta
Occup= 1
   1         0.1435
   2         0.7934
   3         0.0948
   4         0.1436
Sym=   A
Ene=   0.7387
Spin=  Beta
Occup= 0
   1         0.7967
   2         0.0001
   3         0.0003
   4        -0.797
Sym=   A
Ene=   0.8179
Spin=  Beta
Occup= 0
   1        -0.4819
   2         0.0749
   3         0.8967
   4        -0.4813
Sym=   A
Ene=   1.1928
Spin=  Beta
Occup= 0
   1        -0.665
   2         1.1959
   3        -0.7188
   4        -0.6649
