[Molden Format]
made by Quiqbox

[Atoms] (AU)
H    1    1         -1.5246       -0.8802       -0.4898
N    2    7          0.0           0.0           0.2099
H    3    1          0.0           1.7605       -0.4898
H    4    1          1.5246       -0.8802       -0.4898

[GTO]
1 0
S    2   1.0
         1.309756377                   0.4301284983
         0.2331359749                  0.6789135305

2 0
S    2   1.0
        37.89647534                    0.4301284983
         6.745553507                   0.6789135305
S    2   1.0
         1.461088772                   0.0494717692
         0.3705706944                  0.9637824081
P    2   1.0
         1.461088772                   0.5115407076
         0.3705706944                  0.6128198961

3 0
S    2   1.0
         1.309756377                   0.4301284983
         0.2331359749                  0.6789135305

4 0
S    2   1.0
         1.309756377                   0.4301284983
         0.2331359749                  0.6789135305

[MO]
Sym=   A
Ene=  -14.8146
Spin=  Alpha
Occup= 1
   1        -0.0151
   2         0.9841
   3         0.0674
   4         0.0
   5         0.0
   6        -0.0091
   7        -0.0151
   8        -0.0151
Sym=   A
Ene=  -1.081
Spin=  Alpha
Occup= 1
   1        -0.1715
   2         0.2488
   3        -0.7148
   4         0.0
   5        -0.0
   6         0.1348
   7        -0.1715
   8        -0.1715
Sym=   A
Ene=  -0.5685
Spin=  Alpha
Occup= 1
   1        -0.3132
   2         0.0
   3        -0.0
   4         0.5388
   5        -0.2153
   6         0.0
   7        -0.1878
   8         0.501
Sym=   A
Ene=  -0.5685
Spin=  Alpha
Occup= 1
   1        -0.3977
   2         0.0
   3        -0.0
   4         0.2153
   5         0.5388
   6        -0.0
   7         0.47
   8        -0.0724
Sym=   A
Ene=  -0.329
Spin=  Alpha
Occup= 1
   1         0.1308
   2         0.1123
   3        -0.4722
   4        -0.0
   5         0.0
   6        -0.8861
   7         0.1308
   8         0.1308
Sym=   A
Ene=   0.6656
Spin=  Alpha
Occup= 0
   1         0.7239
   2         0.2417
   3        -1.3083
   4        -0.0
   5         0.0001
   6         0.5768
   7         0.7238
   8         0.7239
Sym=   A
Ene=   0.7839
Spin=  Alpha
Occup= 0
   1         0.7983
   2         0.0
   3        -0.0
   4         1.0573
   5        -0.1216
   6        -0.0
   7         0.1136
   8        -0.9118
Sym=   A
Ene=   0.7839
Spin=  Alpha
Occup= 0
   1        -0.592
   2         0.0
   3        -0.0001
   4        -0.1216
   5        -1.0573
   6         0.0
   7         0.9874
   8        -0.3953
Sym=   A
Ene=  -14.8145
Spin=  Beta
Occup= 1
   1        -0.0151
   2         0.9841
   3         0.0674
   4        -0.0
   5         0.0
   6        -0.0091
   7        -0.0151
   8        -0.0151
Sym=   A
Ene=  -1.081
Spin=  Beta
Occup= 1
   1        -0.1716
   2         0.2487
   3        -0.7147
   4        -0.0
   5        -0.0
   6         0.1347
   7        -0.1716
   8        -0.1716
Sym=   A
Ene=  -0.5685
Spin=  Beta
Occup= 1
   1        -0.4489
   2         0.0
   3        -0.0
   4         0.3112
   5         0.4895
   6        -0.0
   7         0.4273
   8         0.0216
Sym=   A
Ene=  -0.5685
Spin=  Beta
Occup= 1
   1         0.2342
   2         0.0
   3        -0.0
   4        -0.4895
   5         0.3112
   6         0.0
   7         0.2716
   8        -0.5058
Sym=   A
Ene=  -0.329
Spin=  Beta
Occup= 1
   1         0.1309
   2         0.1123
   3        -0.4723
   4         0.0
   5        -0.0
   6        -0.886
   7         0.1309
   8         0.1309
Sym=   A
Ene=   0.6656
Spin=  Beta
Occup= 0
   1         0.7239
   2         0.2417
   3        -1.3083
   4         0.0
   5         0.0
   6         0.5769
   7         0.7238
   8         0.7239
Sym=   A
Ene=   0.7839
Spin=  Beta
Occup= 0
   1        -0.9332
   2         0.0
   3        -0.0
   4        -1.0485
   5        -0.1828
   6         0.0
   7         0.1707
   8         0.7625
Sym=   A
Ene=   0.7839
Spin=  Beta
Occup= 0
   1        -0.3416
   2         0.0
   3        -0.0001
   4         0.1828
   5        -1.0485
   6         0.0
   7         0.9791
   8        -0.6373
