[Molden Format]
made by Quiqbox

[Atoms] (AU)
X    1    X         -0.6           -0.6           -0.6
X    2    X         -0.6           -0.6            0.6
X    3    X         -0.6            0.6           -0.6
X    4    X         -0.6            0.6            0.6
X    5    X          0.6           -0.6           -0.6
X    6    X          0.6           -0.6            0.6
X    7    X          0.6            0.6           -0.6
X    8    X          0.6            0.6            0.6
H    9    1          0.86644        0.0            0.0
F    10   9         -0.86644        0.0            0.0

[GTO]
1 0
S    3   1.0
         3.425250914                   0.1543289673
         0.6239137298                  0.5353281423
         0.168855404                   0.4446345422

2 0
S    3   1.0
         3.425250914                   0.1543289673
         0.6239137298                  0.5353281423
         0.168855404                   0.4446345422

3 0
S    3   1.0
         3.425250914                   0.1543289673
         0.6239137298                  0.5353281423
         0.168855404                   0.4446345422

4 0
S    3   1.0
         3.425250914                   0.1543289673
         0.6239137298                  0.5353281423
         0.168855404                   0.4446345422

5 0
S    3   1.0
         3.425250914                   0.1543289673
         0.6239137298                  0.5353281423
         0.168855404                   0.4446345422

6 0
S    3   1.0
         3.425250914                   0.1543289673
         0.6239137298                  0.5353281423
         0.168855404                   0.4446345422

7 0
S    3   1.0
         3.425250914                   0.1543289673
         0.6239137298                  0.5353281423
         0.168855404                   0.4446345422

8 0
S    3   1.0
         3.425250914                   0.1543289673
         0.6239137298                  0.5353281423
         0.168855404                   0.4446345422

[MO]
Sym=   A
Ene=  -3.56836
Spin=  Alpha
Occup= 2
   1         0.38586
   2         0.38586
   3         0.38586
   4         0.38586
   5        -0.15274
   6        -0.15274
   7        -0.15274
   8        -0.15274
Sym=   A
Ene=  -1.10496
Spin=  Alpha
Occup= 2
   1         1.16553
   2        -0.00144
   3         0.00144
   4        -1.16553
   5        -0.16643
   6         0.00021
   7        -0.00021
   8         0.16642
Sym=   A
Ene=  -1.10496
Spin=  Alpha
Occup= 2
   1         0.00144
   2         1.16553
   3        -1.16553
   4        -0.00144
   5        -0.00021
   6        -0.16642
   7         0.16642
   8         0.00021
Sym=   A
Ene=  -0.36625
Spin=  Alpha
Occup= 2
   1         0.21399
   2         0.21399
   3         0.21399
   4         0.21399
   5        -0.41394
   6        -0.41394
   7        -0.41394
   8        -0.41394
Sym=   A
Ene=   0.61544
Spin=  Alpha
Occup= 2
   1         1.45618
   2        -1.45618
   3        -1.45618
   4         1.45617
   5         0.20819
   6        -0.2082
   7        -0.2082
   8         0.2082
Sym=   A
Ene=   1.51912
Spin=  Alpha
Occup= 0
   1         0.78868
   2         0.0012
   3        -0.00119
   4        -0.78869
   5        -1.39742
   6        -0.00212
   7         0.00212
   8         1.39742
Sym=   A
Ene=   1.51912
Spin=  Alpha
Occup= 0
   1         0.00119
   2        -0.78868
   3         0.78868
   4        -0.0012
   5        -0.00212
   6         1.39742
   7        -1.39742
   8         0.00212
Sym=   A
Ene=   3.58338
Spin=  Alpha
Occup= 0
   1         1.10357
   2        -1.10357
   3        -1.10357
   4         1.10357
   5        -1.81521
   6         1.81521
   7         1.81521
   8        -1.81521
