[Molden Format]
made by Quiqbox

[Atoms] (AU)
X    1    X         -0.6          -0.6          -0.6
X    2    X         -0.6          -0.6           0.6
X    3    X         -0.6           0.6          -0.6
X    4    X         -0.6           0.6           0.6
X    5    X          0.6          -0.6          -0.6
X    6    X          0.6          -0.6           0.6
X    7    X          0.6           0.6          -0.6
X    8    X          0.6           0.6           0.6
H    9    1          0.7001        0.0           0.0
H    10   1         -0.7001        0.0           0.0

[GTO]
1 0
S    3   1.0
         3.425250914                   0.1543289673
         0.6239137298                  0.5353281423
         0.168855404                   0.4446345422

2 0
S    3   1.0
         3.425250914                   0.1543289673
         0.6239137298                  0.5353281423
         0.168855404                   0.4446345422

3 0
S    3   1.0
         3.425250914                   0.1543289673
         0.6239137298                  0.5353281423
         0.168855404                   0.4446345422

4 0
S    3   1.0
         3.425250914                   0.1543289673
         0.6239137298                  0.5353281423
         0.168855404                   0.4446345422

5 0
S    3   1.0
         3.425250914                   0.1543289673
         0.6239137298                  0.5353281423
         0.168855404                   0.4446345422

6 0
S    3   1.0
         3.425250914                   0.1543289673
         0.6239137298                  0.5353281423
         0.168855404                   0.4446345422

7 0
S    3   1.0
         3.425250914                   0.1543289673
         0.6239137298                  0.5353281423
         0.168855404                   0.4446345422

8 0
S    3   1.0
         3.425250914                   0.1543289673
         0.6239137298                  0.5353281423
         0.168855404                   0.4446345422

[MO]
Sym=   A
Ene=  -0.5341
Spin=  Alpha
Occup= 2
   1         0.1536
   2         0.1536
   3         0.1536
   4         0.1536
   5         0.1536
   6         0.1536
   7         0.1536
   8         0.1536
Sym=   A
Ene=   0.6385
Spin=  Alpha
Occup= 0
   1         0.4136
   2         0.4136
   3         0.4136
   4         0.4136
   5        -0.4136
   6        -0.4136
   7        -0.4136
   8        -0.4136
Sym=   A
Ene=   0.8338
Spin=  Alpha
Occup= 0
   1         0.4071
   2         0.4201
   3        -0.4201
   4        -0.4071
   5         0.4071
   6         0.4201
   7        -0.4201
   8        -0.4071
Sym=   A
Ene=   0.8338
Spin=  Alpha
Occup= 0
   1         0.4201
   2        -0.4071
   3         0.4071
   4        -0.4201
   5         0.4201
   6        -0.4071
   7         0.4071
   8        -0.4201
Sym=   A
Ene=   2.1859
Spin=  Alpha
Occup= 0
   1         0.8541
   2        -0.9533
   3         0.9533
   4        -0.8541
   5        -0.8541
   6         0.9533
   7        -0.9533
   8         0.8541
Sym=   A
Ene=   2.1859
Spin=  Alpha
Occup= 0
   1         0.9533
   2         0.8541
   3        -0.8541
   4        -0.9533
   5        -0.9533
   6        -0.8541
   7         0.8541
   8         0.9533
Sym=   A
Ene=   2.2723
Spin=  Alpha
Occup= 0
   1         0.9051
   2        -0.9051
   3        -0.9051
   4         0.9051
   5         0.9051
   6        -0.9051
   7        -0.9051
   8         0.9051
Sym=   A
Ene=   4.3317
Spin=  Alpha
Occup= 0
   1         1.5872
   2        -1.5872
   3        -1.5872
   4         1.5872
   5        -1.5872
   6         1.5872
   7         1.5872
   8        -1.5872
