[Molden Format]
made by Quiqbox

[Atoms] (AU)
X    1    X         -0.60000        -0.60000        -0.60000
X    2    X         -0.60000        -0.60000         0.60000
X    3    X         -0.60000         0.60000        -0.60000
X    4    X         -0.60000         0.60000         0.60000
X    5    X          0.60000        -0.60000        -0.60000
X    6    X          0.60000        -0.60000         0.60000
X    7    X          0.60000         0.60000        -0.60000
X    8    X          0.60000         0.60000         0.60000
N    9    7          0.00000         0.00000         0.20995
H    10   1          0.00000         1.76047        -0.48982
H    11   1          1.52463        -0.88023        -0.48982
H    12   1         -1.52463        -0.88023        -0.48982

[GTO]
1 0
S    3   1.0
         3.42525         0.15433
         0.62391         0.53533
         0.16886         0.44463

2 0
S    3   1.0
         3.42525         0.15433
         0.62391         0.53533
         0.16886         0.44463

3 0
S    3   1.0
         3.42525         0.15433
         0.62391         0.53533
         0.16886         0.44463

4 0
S    3   1.0
         3.42525         0.15433
         0.62391         0.53533
         0.16886         0.44463

5 0
S    3   1.0
         3.42525         0.15433
         0.62391         0.53533
         0.16886         0.44463

6 0
S    3   1.0
         3.42525         0.15433
         0.62391         0.53533
         0.16886         0.44463

7 0
S    3   1.0
         3.42525         0.15433
         0.62391         0.53533
         0.16886         0.44463

8 0
S    3   1.0
         3.42525         0.15433
         0.62391         0.53533
         0.16886         0.44463

[MO]
Sym=   A
Ene=  -2.35145
Spin=  Alpha
Occup= 2
   1         0.06543
   2         0.24344
   3         0.07184
   4         0.22134
   5         0.06543
   6         0.24344
   7         0.07184
   8         0.22134
Sym=   A
Ene=  -0.73489
Spin=  Alpha
Occup= 2
   1         0.42945
   2         0.54122
   3         0.23847
   4         0.43365
   5        -0.42945
   6        -0.54122
   7        -0.23847
   8        -0.43365
Sym=   A
Ene=  -0.71808
Spin=  Alpha
Occup= 2
   1         0.30630
   2         0.50999
   3        -0.35591
   4        -0.47320
   5         0.30630
   6         0.50999
   7        -0.35591
   8        -0.47320
Sym=   A
Ene=  -0.54978
Spin=  Alpha
Occup= 2
   1         0.45693
   2        -0.35054
   3         0.41335
   4        -0.39866
   5         0.45693
   6        -0.35054
   7         0.41335
   8        -0.39866
Sym=   A
Ene=   0.74167
Spin=  Alpha
Occup= 2
   1         1.11414
   2         0.50566
   3        -0.41891
   4        -1.26869
   5        -1.11414
   6        -0.50566
   7         0.41891
   8         1.26869
Sym=   A
Ene=   1.32467
Spin=  Alpha
Occup= 0
   1         0.93703
   2        -0.86179
   3        -0.93927
   4         0.86780
   5         0.93703
   6        -0.86179
   7        -0.93927
   8         0.86780
Sym=   A
Ene=   1.33782
Spin=  Alpha
Occup= 0
   1         0.61047
   2        -1.23288
   3         1.12834
   4        -0.32451
   5        -0.61047
   6         1.23288
   7        -1.12834
   8         0.32451
Sym=   A
Ene=   3.40646
Spin=  Alpha
Occup= 0
   1         1.59065
   2        -1.50331
   3        -1.68019
   4         1.55744
   5        -1.59065
   6         1.50331
   7         1.68019
   8        -1.55744
