[Molden Format]
made by Quiqbox

[Atoms] (AU)
X    1    X         -0.60000        -0.60000        -0.60000
X    2    X         -0.60000        -0.60000         0.60000
X    3    X         -0.60000         0.60000        -0.60000
X    4    X         -0.60000         0.60000         0.60000
X    5    X          0.60000        -0.60000        -0.60000
X    6    X          0.60000        -0.60000         0.60000
X    7    X          0.60000         0.60000        -0.60000
X    8    X          0.60000         0.60000         0.60000
H    9    1          0.86644         0.00000         0.00000
F    10   9         -0.86644         0.00000         0.00000

[GTO]
1 0
S    2   1.0
         1.309756377               0.4301284983
         0.2331359749              0.6789135305

2 0
S    2   1.0
         1.309756377               0.4301284983
         0.2331359749              0.6789135305

3 0
S    2   1.0
         1.309756377               0.4301284983
         0.2331359749              0.6789135305

4 0
S    2   1.0
         1.309756377               0.4301284983
         0.2331359749              0.6789135305

5 0
S    2   1.0
         1.309756377               0.4301284983
         0.2331359749              0.6789135305

6 0
S    2   1.0
         1.309756377               0.4301284983
         0.2331359749              0.6789135305

7 0
S    2   1.0
         1.309756377               0.4301284983
         0.2331359749              0.6789135305

8 0
S    2   1.0
         1.309756377               0.4301284983
         0.2331359749              0.6789135305

[MO]
Sym=   A
Ene=  -3.66158
Spin=  Alpha
Occup= 2
   1         0.39001
   2         0.39001
   3         0.39001
   4         0.39001
   5        -0.16070
   6        -0.16070
   7        -0.16070
   8        -0.16070
Sym=   A
Ene=  -1.19890
Spin=  Alpha
Occup= 2
   1         0.82722
   2         0.84642
   3        -0.84642
   4        -0.82722
   5        -0.14091
   6        -0.14418
   7         0.14418
   8         0.14091
Sym=   A
Ene=  -1.19890
Spin=  Alpha
Occup= 2
   1         0.84642
   2        -0.82722
   3         0.82722
   4        -0.84642
   5        -0.14418
   6         0.14091
   7        -0.14091
   8         0.14418
Sym=   A
Ene=  -0.42078
Spin=  Alpha
Occup= 2
   1         0.20660
   2         0.20660
   3         0.20660
   4         0.20660
   5        -0.41106
   6        -0.41106
   7        -0.41105
   8        -0.41105
Sym=   A
Ene=   0.58528
Spin=  Alpha
Occup= 2
   1         1.48929
   2        -1.48929
   3        -1.48927
   4         1.48927
   5         0.14230
   6        -0.14230
   7        -0.14234
   8         0.14234
Sym=   A
Ene=   1.38531
Spin=  Alpha
Occup= 0
   1         0.54242
   2        -0.51748
   3         0.51753
   4        -0.54247
   5        -1.00314
   6         0.95701
   7        -0.95700
   8         1.00314
Sym=   A
Ene=   1.38531
Spin=  Alpha
Occup= 0
   1         0.51750
   2         0.54245
   3        -0.54245
   4        -0.51750
   5        -0.95700
   6        -1.00314
   7         1.00314
   8         0.95700
Sym=   A
Ene=   3.11664
Spin=  Alpha
Occup= 0
   1         1.06418
   2        -1.06418
   3        -1.06418
   4         1.06418
   5        -1.82488
   6         1.82488
   7         1.82488
   8        -1.82488
