[Molden Format]
made by Quiqbox

[Atoms] (AU)
X    1    X         -1.52463       -0.88023       -0.48982
X    2    X          0.0            0.0            0.20995
X    3    X          0.0            1.76047       -0.48982
X    4    X          1.52463       -0.88023       -0.48982
H    5    1          0.70014        0.0            0.0
H    6    1         -0.70014        0.0            0.0

[GTO]
1 0
S    3   1.0
         3.425250914                   0.1543289673
         0.6239137298                  0.5353281423
         0.168855404                   0.4446345422

2 0
S    3   1.0
         3.425250914                   0.1543289673
         0.6239137298                  0.5353281423
         0.168855404                   0.4446345422

3 0
S    3   1.0
         3.425250914                   0.1543289673
         0.6239137298                  0.5353281423
         0.168855404                   0.4446345422

4 0
S    3   1.0
         3.425250914                   0.1543289673
         0.6239137298                  0.5353281423
         0.168855404                   0.4446345422

[MO]
Sym=   A
Ene=  -0.47269
Spin=  Alpha
Occup= 1
   1         0.154
   2         0.77469
   3         0.10536
   4         0.15386
Sym=   A
Ene=   0.77487
Spin=  Alpha
Occup= 0
   1        -0.79964
   2         0.00014
   3         0.00031
   4         0.79926
Sym=   A
Ene=   0.85527
Spin=  Alpha
Occup= 0
   1        -0.47837
   2         0.06717
   3         0.90442
   4        -0.47895
Sym=   A
Ene=   1.24524
Spin=  Alpha
Occup= 0
   1        -0.66047
   2         1.20213
   3        -0.70649
   4        -0.66053
Sym=   A
Ene=  -0.47269
Spin=  Beta
Occup= 1
   1         0.15386
   2         0.77469
   3         0.10536
   4         0.154
Sym=   A
Ene=   0.77487
Spin=  Beta
Occup= 0
   1         0.79926
   2         0.00014
   3         0.00031
   4        -0.79964
Sym=   A
Ene=   0.85527
Spin=  Beta
Occup= 0
   1        -0.47895
   2         0.06718
   3         0.90442
   4        -0.47837
Sym=   A
Ene=   1.24524
Spin=  Beta
Occup= 0
   1        -0.66053
   2         1.20213
   3        -0.70649
   4        -0.66047
