[Molden Format]
made by Quiqbox

[Atoms] (AU)
X    1    X         -1.524631       -0.880234       -0.489817
X    2    X          0.0             0.0             0.209949
X    3    X          0.0             1.760469       -0.489817
X    4    X          1.524631       -0.880234       -0.489817
H    5    1          0.700144        0.0             0.0
H    6    1         -0.700144        0.0             0.0

[GTO]
1 0
S    3   1.0
         3.425250914                   0.1543289673
         0.6239137298                  0.5353281423
         0.168855404                   0.4446345422

2 0
S    3   1.0
         3.425250914                   0.1543289673
         0.6239137298                  0.5353281423
         0.168855404                   0.4446345422

3 0
S    3   1.0
         3.425250914                   0.1543289673
         0.6239137298                  0.5353281423
         0.168855404                   0.4446345422

4 0
S    3   1.0
         3.425250914                   0.1543289673
         0.6239137298                  0.5353281423
         0.168855404                   0.4446345422

[MO]
Sym=   A
Ene=  -0.472691
Spin=  Alpha
Occup= 1
   1         0.154
   2         0.774694
   3         0.105357
   4         0.153862
Sym=   A
Ene=   0.774872
Spin=  Alpha
Occup= 0
   1        -0.799636
   2         0.000138
   3         0.000314
   4         0.799261
Sym=   A
Ene=   0.855274
Spin=  Alpha
Occup= 0
   1        -0.478365
   2         0.067175
   3         0.904416
   4        -0.478953
Sym=   A
Ene=   1.245243
Spin=  Alpha
Occup= 0
   1        -0.660467
   2         1.202135
   3        -0.706487
   4        -0.660528
Sym=   A
Ene=  -0.472691
Spin=  Beta
Occup= 1
   1         0.153862
   2         0.774694
   3         0.105357
   4         0.154
Sym=   A
Ene=   0.774872
Spin=  Beta
Occup= 0
   1         0.799262
   2         0.000137
   3         0.000313
   4        -0.799635
Sym=   A
Ene=   0.855274
Spin=  Beta
Occup= 0
   1        -0.478952
   2         0.067175
   3         0.904416
   4        -0.478367
Sym=   A
Ene=   1.245243
Spin=  Beta
Occup= 0
   1        -0.660527
   2         1.202135
   3        -0.706487
   4        -0.660467
