[Molden Format]
made by Quiqbox

[Atoms] (AU)
F    1    9         -0.866439        0.0             0.0
H    2    1          0.866439        0.0             0.0

[GTO]
1 0
S    3   1.0
       166.679134                      0.1543289673
        30.36081233                    0.5353281423
         8.216820672                   0.4446345422
S    3   1.0
         6.464803249                  -0.09996722919
         1.502281245                   0.3995128261
         0.4885884864                  0.7001154689
P    3   1.0
         6.464803249                   0.155916275
         1.502281245                   0.6076837186
         0.4885884864                  0.3919573931

2 0
S    3   1.0
         3.425250914                   0.1543289673
         0.6239137298                  0.5353281423
         0.168855404                   0.4446345422

[MO]
Sym=   A
Ene=  -25.900035
Spin=  Alpha
Occup= 1
   1        -0.994698
   2        -0.02264
   3        -0.002959
   4         0.0
   5         0.0
   6         0.005784
Sym=   A
Ene=  -1.471231
Spin=  Alpha
Occup= 1
   1        -0.249194
   2         0.936261
   3         0.0899
   4         0.0
   5         0.0
   6         0.158413
Sym=   A
Ene=  -0.585221
Spin=  Alpha
Occup= 1
   1         0.082471
   2        -0.434576
   3         0.702263
   4         0.0
   5         0.0
   6         0.521207
Sym=   A
Ene=  -0.464173
Spin=  Alpha
Occup= 1
   1         0.0
   2         0.0
   3         0.0
   4         1.0
   5         0.0
   6         0.0
Sym=   A
Ene=  -0.464173
Spin=  Alpha
Occup= 1
   1         0.0
   2         0.0
   3         0.0
   4         0.0
   5         1.0
   6         0.0
Sym=   A
Ene=   0.629018
Spin=  Alpha
Occup= 0
   1         0.084893
   2        -0.559515
   3        -0.824594
   4         0.0
   5         0.0
   6         1.090402
Sym=   A
Ene=  -25.900024
Spin=  Beta
Occup= 1
   1        -0.994699
   2        -0.022639
   3        -0.002959
   4         0.0
   5         0.0
   6         0.005784
Sym=   A
Ene=  -1.471175
Spin=  Beta
Occup= 1
   1        -0.249188
   2         0.936227
   3         0.08986
   4         0.0
   5         0.0
   6         0.158477
Sym=   A
Ene=  -0.585128
Spin=  Beta
Occup= 1
   1         0.082499
   2        -0.434751
   3         0.702013
   4         0.0
   5         0.0
   6         0.521534
Sym=   A
Ene=  -0.464154
Spin=  Beta
Occup= 1
   1         0.0
   2         0.0
   3         0.0
   4         1.0
   5         0.0
   6         0.0
Sym=   A
Ene=  -0.464154
Spin=  Beta
Occup= 1
   1         0.0
   2         0.0
   3         0.0
   4         0.0
   5         1.0
   6         0.0
Sym=   A
Ene=   0.62904
Spin=  Beta
Occup= 0
   1         0.084882
   2        -0.559436
   3        -0.824811
   4         0.0
   5         0.0
   6         1.090236
