[Molden Format]
made by Quiqbox

[Atoms] (AU)
H    1    1         -1.52       -0.88       -0.49
N    2    7          0.0         0.0         0.21
H    3    1          0.0         1.76       -0.49
H    4    1          1.52       -0.88       -0.49

[GTO]
1 0
S    3   1.0
         3.425250914                   0.1543289673
         0.6239137298                  0.5353281423
         0.168855404                   0.4446345422

2 0
S    3   1.0
        99.10616896                    0.1543289673
        18.05231239                    0.5353281423
         4.885660238                   0.4446345422
S    3   1.0
         3.780455879                  -0.09996722919
         0.8784966449                  0.3995128261
         0.2857143744                  0.7001154689
P    3   1.0
         3.780455879                   0.155916275
         0.8784966449                  0.6076837186
         0.2857143744                  0.3919573931

3 0
S    3   1.0
         3.425250914                   0.1543289673
         0.6239137298                  0.5353281423
         0.168855404                   0.4446345422

4 0
S    3   1.0
         3.425250914                   0.1543289673
         0.6239137298                  0.5353281423
         0.168855404                   0.4446345422

[MO]
Sym=   A
Ene=  -15.3
Spin=  Alpha
Occup= 2
   1        -0.01
   2         0.99
   3         0.03
   4        -0.0
   5         0.0
   6        -0.0
   7        -0.01
   8        -0.01
Sym=   A
Ene=  -1.09
Spin=  Alpha
Occup= 2
   1        -0.16
   2         0.22
   3        -0.73
   4         0.0
   5        -0.0
   6         0.14
   7        -0.16
   8        -0.16
Sym=   A
Ene=  -0.58
Spin=  Alpha
Occup= 2
   1         0.43
   2         0.0
   3        -0.0
   4        -0.59
   5        -0.0
   6        -0.0
   7        -0.0
   8        -0.43
Sym=   A
Ene=  -0.58
Spin=  Alpha
Occup= 2
   1        -0.25
   2         0.0
   3        -0.0
   4        -0.0
   5         0.59
   6        -0.0
   7         0.49
   8        -0.25
Sym=   A
Ene=  -0.35
Spin=  Alpha
Occup= 2
   1         0.12
   2         0.09
   3        -0.44
   4        -0.0
   5         0.0
   6        -0.9
   7         0.12
   8         0.12
Sym=   A
Ene=   0.65
Spin=  Alpha
Occup= 0
   1         0.72
   2         0.19
   3        -1.29
   4         0.0
   5         0.0
   6         0.56
   7         0.72
   8         0.72
Sym=   A
Ene=   0.74
Spin=  Alpha
Occup= 0
   1        -0.87
   2         0.0
   3        -0.0
   4        -1.06
   5         0.0
   6         0.0
   7        -0.0
   8         0.87
Sym=   A
Ene=   0.74
Spin=  Alpha
Occup= 0
   1        -0.5
   2         0.0
   3        -0.0
   4        -0.0
   5        -1.06
   6         0.0
   7         1.01
   8        -0.5
