[Molden Format]
made by Quiqbox

[Atoms] (AU)
X    1    X         -0.86644        0.0            0.0
X    2    X          0.86644        0.0            0.0
H    3    1          0.70014        0.0            0.0
H    4    1         -0.70014        0.0            0.0

[GTO]
1 0
S    3   1.0
         3.425250914                   0.1543289673
         0.6239137298                  0.5353281423
         0.168855404                   0.4446345422

2 0
S    3   1.0
         3.425250914                   0.1543289673
         0.6239137298                  0.5353281423
         0.168855404                   0.4446345422

[MO]
Sym=   A
Ene=  -0.56086
Spin=  Alpha
Occup= 1
   1         0.56877
   2         0.56839
Sym=   A
Ene=   0.57151
Spin=  Alpha
Occup= 0
   1        -1.05007
   2         1.05027
Sym=   A
Ene=  -0.56086
Spin=  Beta
Occup= 1
   1         0.56839
   2         0.56877
Sym=   A
Ene=   0.57151
Spin=  Beta
Occup= 0
   1        -1.05027
   2         1.05007
