[Molden Format]
made by Quiqbox

[Atoms] (AU)
H    1    1         -0.70014         0.00000         0.00000
H    2    1          0.70014         0.00000         0.00000

[GTO]
1 0
S    3   1.0
         3.425250914               0.1543289673
         0.6239137298              0.5353281423
         0.168855404               0.4446345422

2 0
S    3   1.0
         3.425250914               0.1543289673
         0.6239137298              0.5353281423
         0.168855404               0.4446345422

[MO]
Sym=   A
Ene=  -0.57814
Spin=  Alpha
Occup= 2
   1         0.54895
   2         0.54895
Sym=   A
Ene=   0.67011
Spin=  Alpha
Occup= 0
   1        -1.21129
   2         1.21129
