[Molden Format]
made by Quiqbox

[Atoms] (AU)
X    1    X         -1.524631       -0.880234       -0.489817
X    2    X          0.0             0.0             0.209949
X    3    X          0.0             1.760469       -0.489817
X    4    X          1.524631       -0.880234       -0.489817
H    5    1          0.700144        0.0             0.0
H    6    1         -0.700144        0.0             0.0

[GTO]
1 0
S    3   1.0
         3.425250914                   0.1543289673
         0.6239137298                  0.5353281423
         0.168855404                   0.4446345422

2 0
S    3   1.0
         3.425250914                   0.1543289673
         0.6239137298                  0.5353281423
         0.168855404                   0.4446345422

3 0
S    3   1.0
         3.425250914                   0.1543289673
         0.6239137298                  0.5353281423
         0.168855404                   0.4446345422

4 0
S    3   1.0
         3.425250914                   0.1543289673
         0.6239137298                  0.5353281423
         0.168855404                   0.4446345422

[MO]
Sym=   A
Ene=  -0.472699
Spin=  Alpha
Occup= 2
   1         0.153929
   2         0.77469
   3         0.105367
   4         0.15393
Sym=   A
Ene=   0.774863
Spin=  Alpha
Occup= 0
   1        -0.79945
   2         0.0
   3         1.0e-6
   4         0.799447
Sym=   A
Ene=   0.855275
Spin=  Alpha
Occup= 0
   1        -0.478675
   2         0.067198
   3         0.904398
   4        -0.478678
Sym=   A
Ene=   1.245239
Spin=  Alpha
Occup= 0
   1        -0.660485
   2         1.202136
   3        -0.706509
   4        -0.660485
