[Molden Format]
made by Quiqbox

[Atoms] (AU)
H    1    1         -1.52       -0.88       -0.49
N    2    7          0.0         0.0         0.21
H    3    1          0.0         1.76       -0.49
H    4    1          1.52       -0.88       -0.49

[GTO]
1 0
S    3   1.0
         3.425250914                   0.1543289673
         0.6239137298                  0.5353281423
         0.168855404                   0.4446345422

2 0
S    3   1.0
        99.10616896                    0.1543289673
        18.05231239                    0.5353281423
         4.885660238                   0.4446345422
S    3   1.0
         3.780455879                  -0.09996722919
         0.8784966449                  0.3995128261
         0.2857143744                  0.7001154689
P    3   1.0
         3.780455879                   0.155916275
         0.8784966449                  0.6076837186
         0.2857143744                  0.3919573931

3 0
S    3   1.0
         3.425250914                   0.1543289673
         0.6239137298                  0.5353281423
         0.168855404                   0.4446345422

4 0
S    3   1.0
         3.425250914                   0.1543289673
         0.6239137298                  0.5353281423
         0.168855404                   0.4446345422

[MO]
Sym=   A
Ene=  -15.3
Spin=  Alpha
Occup= 1
   1        -0.01
   2         0.99
   3         0.03
   4         0.0
   5         0.0
   6        -0.0
   7        -0.01
   8        -0.01
Sym=   A
Ene=  -1.09
Spin=  Alpha
Occup= 1
   1        -0.16
   2         0.22
   3        -0.73
   4         0.0
   5        -0.0
   6         0.14
   7        -0.16
   8        -0.16
Sym=   A
Ene=  -0.58
Spin=  Alpha
Occup= 1
   1        -0.32
   2         0.0
   3        -0.0
   4         0.56
   5        -0.2
   6         0.0
   7        -0.17
   8         0.49
Sym=   A
Ene=  -0.58
Spin=  Alpha
Occup= 1
   1        -0.38
   2         0.0
   3        -0.0
   4         0.2
   5         0.56
   6        -0.0
   7         0.46
   8        -0.08
Sym=   A
Ene=  -0.35
Spin=  Alpha
Occup= 1
   1         0.12
   2         0.09
   3        -0.44
   4        -0.0
   5         0.0
   6        -0.9
   7         0.12
   8         0.12
Sym=   A
Ene=   0.65
Spin=  Alpha
Occup= 0
   1         0.72
   2         0.19
   3        -1.29
   4        -0.0
   5         0.0
   6         0.56
   7         0.72
   8         0.72
Sym=   A
Ene=   0.74
Spin=  Alpha
Occup= 0
   1         0.8
   2         0.0
   3        -0.0
   4         1.05
   5        -0.13
   6         0.0
   7         0.13
   8        -0.93
Sym=   A
Ene=   0.74
Spin=  Alpha
Occup= 0
   1        -0.61
   2         0.0
   3        -0.0
   4        -0.13
   5        -1.05
   6         0.0
   7         1.0
   8        -0.39
Sym=   A
Ene=  -15.3
Spin=  Beta
Occup= 1
   1        -0.01
   2         0.99
   3         0.03
   4        -0.0
   5         0.0
   6        -0.0
   7        -0.01
   8        -0.01
Sym=   A
Ene=  -1.09
Spin=  Beta
Occup= 1
   1        -0.16
   2         0.22
   3        -0.73
   4        -0.0
   5        -0.0
   6         0.14
   7        -0.16
   8        -0.16
Sym=   A
Ene=  -0.58
Spin=  Beta
Occup= 1
   1        -0.45
   2         0.0
   3        -0.0
   4         0.34
   5         0.49
   6        -0.0
   7         0.41
   8         0.04
Sym=   A
Ene=  -0.58
Spin=  Beta
Occup= 1
   1         0.21
   2         0.0
   3        -0.0
   4        -0.49
   5         0.34
   6         0.0
   7         0.28
   8        -0.49
Sym=   A
Ene=  -0.35
Spin=  Beta
Occup= 1
   1         0.12
   2         0.09
   3        -0.44
   4         0.0
   5        -0.0
   6        -0.9
   7         0.12
   8         0.12
Sym=   A
Ene=   0.65
Spin=  Beta
Occup= 0
   1         0.72
   2         0.19
   3        -1.29
   4         0.0
   5         0.0
   6         0.56
   7         0.72
   8         0.72
Sym=   A
Ene=   0.74
Spin=  Beta
Occup= 0
   1        -0.96
   2         0.0
   3        -0.0
   4        -1.04
   5        -0.22
   6         0.0
   7         0.2
   8         0.75
Sym=   A
Ene=   0.74
Spin=  Beta
Occup= 0
   1        -0.32
   2         0.0
   3        -0.0
   4         0.22
   5        -1.04
   6         0.0
   7         0.99
   8        -0.67
