[Molden Format]
made by Quiqbox

[Atoms] (AU)
X    1    X         -0.6         -0.6         -0.6
X    2    X         -0.6         -0.6          0.6
X    3    X         -0.6          0.6         -0.6
X    4    X         -0.6          0.6          0.6
X    5    X          0.6         -0.6         -0.6
X    6    X          0.6         -0.6          0.6
X    7    X          0.6          0.6         -0.6
X    8    X          0.6          0.6          0.6
N    9    7          0.0          0.0          0.21
H    10   1          0.0          1.76        -0.49
H    11   1          1.525       -0.88        -0.49
H    12   1         -1.525       -0.88        -0.49

[GTO]
1 0
S    3   1.0
         3.425250914                   0.1543289673
         0.6239137298                  0.5353281423
         0.168855404                   0.4446345422

2 0
S    3   1.0
         3.425250914                   0.1543289673
         0.6239137298                  0.5353281423
         0.168855404                   0.4446345422

3 0
S    3   1.0
         3.425250914                   0.1543289673
         0.6239137298                  0.5353281423
         0.168855404                   0.4446345422

4 0
S    3   1.0
         3.425250914                   0.1543289673
         0.6239137298                  0.5353281423
         0.168855404                   0.4446345422

5 0
S    3   1.0
         3.425250914                   0.1543289673
         0.6239137298                  0.5353281423
         0.168855404                   0.4446345422

6 0
S    3   1.0
         3.425250914                   0.1543289673
         0.6239137298                  0.5353281423
         0.168855404                   0.4446345422

7 0
S    3   1.0
         3.425250914                   0.1543289673
         0.6239137298                  0.5353281423
         0.168855404                   0.4446345422

8 0
S    3   1.0
         3.425250914                   0.1543289673
         0.6239137298                  0.5353281423
         0.168855404                   0.4446345422

[MO]
Sym=   A
Ene=  -2.354
Spin=  Alpha
Occup= 1
   1         0.054
   2         0.248
   3         0.064
   4         0.242
   5         0.076
   6         0.237
   7         0.076
   8         0.208
Sym=   A
Ene=  -0.75
Spin=  Alpha
Occup= 1
   1         0.144
   2         0.261
   3         0.283
   4         0.694
   5        -0.616
   6        -0.626
   7        -0.092
   8        -0.086
Sym=   A
Ene=  -0.711
Spin=  Alpha
Occup= 1
   1         0.395
   2         0.77
   3        -0.219
   4        -0.193
   5         0.032
   6         0.204
   7        -0.488
   8        -0.552
Sym=   A
Ene=  -0.543
Spin=  Alpha
Occup= 1
   1         0.516
   2        -0.195
   3         0.462
   4        -0.305
   5         0.376
   6        -0.48
   7         0.344
   8        -0.479
Sym=   A
Ene=   0.719
Spin=  Alpha
Occup= 1
   1         0.7
   2         0.769
   3        -0.023
   4        -1.5
   5        -1.39
   6        -0.136
   7         0.721
   8         0.867
Sym=   A
Ene=   1.342
Spin=  Alpha
Occup= 0
   1         0.366
   2        -1.114
   3         1.298
   4        -0.359
   5        -0.661
   6         1.393
   7        -0.986
   8         0.072
Sym=   A
Ene=   1.345
Spin=  Alpha
Occup= 0
   1         1.364
   2        -0.819
   3        -0.796
   4         0.272
   5         0.356
   6        -0.758
   7        -0.921
   8         1.315
Sym=   A
Ene=   3.408
Spin=  Alpha
Occup= 0
   1         1.607
   2        -1.5
   3        -1.688
   4         1.546
   5        -1.578
   6         1.503
   7         1.674
   8        -1.563
Sym=   A
Ene=  -2.354
Spin=  Beta
Occup= 1
   1         0.076
   2         0.237
   3         0.076
   4         0.208
   5         0.054
   6         0.248
   7         0.064
   8         0.242
Sym=   A
Ene=  -0.75
Spin=  Beta
Occup= 1
   1         0.616
   2         0.626
   3         0.092
   4         0.086
   5        -0.143
   6        -0.261
   7        -0.283
   8        -0.694
Sym=   A
Ene=  -0.711
Spin=  Beta
Occup= 1
   1         0.032
   2         0.204
   3        -0.489
   4        -0.552
   5         0.395
   6         0.77
   7        -0.218
   8        -0.192
Sym=   A
Ene=  -0.543
Spin=  Beta
Occup= 1
   1         0.376
   2        -0.48
   3         0.344
   4        -0.479
   5         0.516
   6        -0.195
   7         0.462
   8        -0.305
Sym=   A
Ene=   0.719
Spin=  Beta
Occup= 1
   1         1.39
   2         0.136
   3        -0.722
   4        -0.867
   5        -0.7
   6        -0.769
   7         0.024
   8         1.5
Sym=   A
Ene=   1.341
Spin=  Beta
Occup= 0
   1         0.662
   2        -1.396
   3         0.983
   4        -0.067
   5        -0.362
   6         1.111
   7        -1.301
   8         0.36
Sym=   A
Ene=   1.345
Spin=  Beta
Occup= 0
   1         0.353
   2        -0.753
   3        -0.925
   4         1.315
   5         1.365
   6        -0.823
   7        -0.792
   8         0.271
Sym=   A
Ene=   3.408
Spin=  Beta
Occup= 0
   1         1.578
   2        -1.503
   3        -1.674
   4         1.563
   5        -1.607
   6         1.5
   7         1.688
   8        -1.546
