[Molden Format]
made by Quiqbox

[Atoms] (AU)
X    1    X           -0.60000        -0.60000        -0.60000
X    2    X           -0.60000        -0.60000         0.60000
X    3    X           -0.60000         0.60000        -0.60000
X    4    X           -0.60000         0.60000         0.60000
X    5    X            0.60000        -0.60000        -0.60000
X    6    X            0.60000        -0.60000         0.60000
X    7    X            0.60000         0.60000        -0.60000
X    8    X            0.60000         0.60000         0.60000
H    9    1            0.86644         0.00000         0.00000
F    10   9           -0.86644         0.00000         0.00000

[GTO]
1 0
S    3   1.0
         3.42525         0.15433
         0.62391         0.53533
         0.16886         0.44463

2 0
S    3   1.0
         3.42525         0.15433
         0.62391         0.53533
         0.16886         0.44463

3 0
S    3   1.0
         3.42525         0.15433
         0.62391         0.53533
         0.16886         0.44463

4 0
S    3   1.0
         3.42525         0.15433
         0.62391         0.53533
         0.16886         0.44463

5 0
S    3   1.0
         3.42525         0.15433
         0.62391         0.53533
         0.16886         0.44463

6 0
S    3   1.0
         3.42525         0.15433
         0.62391         0.53533
         0.16886         0.44463

7 0
S    3   1.0
         3.42525         0.15433
         0.62391         0.53533
         0.16886         0.44463

8 0
S    3   1.0
         3.42525         0.15433
         0.62391         0.53533
         0.16886         0.44463

[MO]
Sym=   A
Ene=  -3.56838
Spin=  Alpha
Occup= 2
   1     0.38586
   2     0.38586
   3     0.38586
   4     0.38586
   5    -0.15274
   6    -0.15274
   7    -0.15274
   8    -0.15274
Sym=   A
Ene=  -1.10497
Spin=  Alpha
Occup= 2
   1     1.12886
   2     0.29006
   3    -0.29006
   4    -1.12886
   5    -0.16119
   6    -0.04142
   7     0.04142
   8     0.16119
Sym=   A
Ene=  -1.10497
Spin=  Alpha
Occup= 2
   1     0.29006
   2    -1.12886
   3     1.12886
   4    -0.29006
   5    -0.04142
   6     0.16119
   7    -0.16119
   8     0.04142
Sym=   A
Ene=  -0.36624
Spin=  Alpha
Occup= 2
   1     0.21399
   2     0.21399
   3     0.21399
   4     0.21399
   5    -0.41394
   6    -0.41394
   7    -0.41394
   8    -0.41394
Sym=   A
Ene=   0.61544
Spin=  Alpha
Occup= 2
   1     1.45618
   2    -1.45618
   3    -1.45618
   4     1.45618
   5     0.20820
   6    -0.20820
   7    -0.20820
   8     0.20820
Sym=   A
Ene=   1.51913
Spin=  Alpha
Occup= 0
   1     0.14047
   2    -0.77608
   3     0.77608
   4    -0.14047
   5    -0.24890
   6     1.37508
   7    -1.37508
   8     0.24890
Sym=   A
Ene=   1.51913
Spin=  Alpha
Occup= 0
   1     0.77608
   2     0.14047
   3    -0.14047
   4    -0.77608
   5    -1.37508
   6    -0.24890
   7     0.24890
   8     1.37508
Sym=   A
Ene=   3.58338
Spin=  Alpha
Occup= 0
   1     1.10357
   2    -1.10357
   3    -1.10357
   4     1.10357
   5    -1.81520
   6     1.81520
   7     1.81520
   8    -1.81520
