[Molden Format]
made by Quiqbox

[Atoms] (AU)
X    1    X           -0.60000        -0.60000        -0.60000
X    2    X           -0.60000        -0.60000         0.60000
X    3    X           -0.60000         0.60000        -0.60000
X    4    X           -0.60000         0.60000         0.60000
X    5    X            0.60000        -0.60000        -0.60000
X    6    X            0.60000        -0.60000         0.60000
X    7    X            0.60000         0.60000        -0.60000
X    8    X            0.60000         0.60000         0.60000
N    9    7            0.00000         0.00000         0.20995
H    10   1            0.00000         1.76047        -0.48982
H    11   1            1.52463        -0.88023        -0.48982
H    12   1           -1.52463        -0.88023        -0.48982

[GTO]
1 0
S    2   1.0
         1.30976         0.43013
         0.23314         0.67891

2 0
S    2   1.0
         1.30976         0.43013
         0.23314         0.67891

3 0
S    2   1.0
         1.30976         0.43013
         0.23314         0.67891

4 0
S    2   1.0
         1.30976         0.43013
         0.23314         0.67891

5 0
S    2   1.0
         1.30976         0.43013
         0.23314         0.67891

6 0
S    2   1.0
         1.30976         0.43013
         0.23314         0.67891

7 0
S    2   1.0
         1.30976         0.43013
         0.23314         0.67891

8 0
S    2   1.0
         1.30976         0.43013
         0.23314         0.67891

[MO]
Sym=   A
Ene=  -2.38572
Spin=  Alpha
Occup= 2
   1     0.05461
   2     0.25130
   3     0.06231
   4     0.23102
   5     0.05461
   6     0.25130
   7     0.06231
   8     0.23102
Sym=   A
Ene=  -0.80605
Spin=  Alpha
Occup= 2
   1     0.43121
   2     0.53339
   3     0.22724
   4     0.45083
   5    -0.43121
   6    -0.53339
   7    -0.22724
   8    -0.45083
Sym=   A
Ene=  -0.78875
Spin=  Alpha
Occup= 2
   1     0.30257
   2     0.51401
   3    -0.34941
   4    -0.47925
   5     0.30257
   6     0.51401
   7    -0.34941
   8    -0.47925
Sym=   A
Ene=  -0.63101
Spin=  Alpha
Occup= 2
   1     0.45416
   2    -0.34334
   3     0.41951
   4    -0.39511
   5     0.45416
   6    -0.34334
   7     0.41951
   8    -0.39511
Sym=   A
Ene=   0.63949
Spin=  Alpha
Occup= 2
   1     1.19217
   2     0.37429
   3    -0.37190
   4    -1.24079
   5    -1.19217
   6    -0.37429
   7     0.37190
   8     1.24079
Sym=   A
Ene=   1.21680
Spin=  Alpha
Occup= 0
   1     0.93562
   2    -0.85495
   3    -0.93500
   4     0.85850
   5     0.93562
   6    -0.85495
   7    -0.93500
   8     0.85850
Sym=   A
Ene=   1.23648
Spin=  Alpha
Occup= 0
   1     0.52492
   2    -1.25951
   3     1.15024
   4    -0.22412
   5    -0.52492
   6     1.25951
   7    -1.15024
   8     0.22412
Sym=   A
Ene=   2.95249
Spin=  Alpha
Occup= 0
   1     1.56496
   2    -1.52345
   3    -1.67894
   4     1.59336
   5    -1.56496
   6     1.52345
   7     1.67894
   8    -1.59336
