[Molden Format]
made by Quiqbox

[Atoms] (AU)
X    1    X         -1.52463        -0.88023        -0.48982
X    2    X          0.00000         0.00000         0.20995
X    3    X          0.00000         1.76047        -0.48982
X    4    X          1.52463        -0.88023        -0.48982
H    5    1          0.70014         0.00000         0.00000
H    6    1         -0.70014         0.00000         0.00000

[GTO]
1 0
S    3   1.0
         3.42525         0.15433
         0.62391         0.53533
         0.16886         0.44463

2 0
S    3   1.0
         3.42525         0.15433
         0.62391         0.53533
         0.16886         0.44463

3 0
S    3   1.0
         3.42525         0.15433
         0.62391         0.53533
         0.16886         0.44463

4 0
S    3   1.0
         3.42525         0.15433
         0.62391         0.53533
         0.16886         0.44463

[MO]
Sym=   A
Ene=  -0.47269
Spin=  Alpha
Occup= 2
   1         0.15393
   2         0.77469
   3         0.10536
   4         0.15393
Sym=   A
Ene=   0.77487
Spin=  Alpha
Occup= 0
   1        -0.79945
   2         0.00000
   3        -0.00000
   4         0.79945
Sym=   A
Ene=   0.85527
Spin=  Alpha
Occup= 0
   1        -0.47866
   2         0.06718
   3         0.90442
   4        -0.47866
Sym=   A
Ene=   1.24524
Spin=  Alpha
Occup= 0
   1        -0.66050
   2         1.20213
   3        -0.70649
   4        -0.66050
