[Molden Format]
made by Quiqbox

[Atoms] (AU)
X    1    X         -0.6          -0.6          -0.6
X    2    X         -0.6          -0.6           0.6
X    3    X         -0.6           0.6          -0.6
X    4    X         -0.6           0.6           0.6
X    5    X          0.6          -0.6          -0.6
X    6    X          0.6          -0.6           0.6
X    7    X          0.6           0.6          -0.6
X    8    X          0.6           0.6           0.6
N    9    7          0.0           0.0           0.2099
H    10   1          0.0           1.7605       -0.4898
H    11   1          1.5246       -0.8802       -0.4898
H    12   1         -1.5246       -0.8802       -0.4898

[GTO]
1 0
S    2   1.0
         1.309756377                   0.4301284983
         0.2331359749                  0.6789135305

2 0
S    2   1.0
         1.309756377                   0.4301284983
         0.2331359749                  0.6789135305

3 0
S    2   1.0
         1.309756377                   0.4301284983
         0.2331359749                  0.6789135305

4 0
S    2   1.0
         1.309756377                   0.4301284983
         0.2331359749                  0.6789135305

5 0
S    2   1.0
         1.309756377                   0.4301284983
         0.2331359749                  0.6789135305

6 0
S    2   1.0
         1.309756377                   0.4301284983
         0.2331359749                  0.6789135305

7 0
S    2   1.0
         1.309756377                   0.4301284983
         0.2331359749                  0.6789135305

8 0
S    2   1.0
         1.309756377                   0.4301284983
         0.2331359749                  0.6789135305

[MO]
Sym=   A
Ene=  -2.3857
Spin=  Alpha
Occup= 2
   1         0.0546
   2         0.2513
   3         0.0623
   4         0.231
   5         0.0546
   6         0.2513
   7         0.0623
   8         0.231
Sym=   A
Ene=  -0.806
Spin=  Alpha
Occup= 2
   1         0.4312
   2         0.5334
   3         0.2272
   4         0.4508
   5        -0.4312
   6        -0.5334
   7        -0.2272
   8        -0.4508
Sym=   A
Ene=  -0.7887
Spin=  Alpha
Occup= 2
   1         0.3025
   2         0.514
   3        -0.3494
   4        -0.4792
   5         0.3025
   6         0.514
   7        -0.3494
   8        -0.4792
Sym=   A
Ene=  -0.631
Spin=  Alpha
Occup= 2
   1         0.4542
   2        -0.3433
   3         0.4195
   4        -0.3951
   5         0.4542
   6        -0.3433
   7         0.4195
   8        -0.3951
Sym=   A
Ene=   0.6395
Spin=  Alpha
Occup= 2
   1         1.1923
   2         0.374
   3        -0.3716
   4        -1.2409
   5        -1.1923
   6        -0.374
   7         0.3716
   8         1.2408
Sym=   A
Ene=   1.2168
Spin=  Alpha
Occup= 0
   1         0.9356
   2        -0.855
   3        -0.935
   4         0.8585
   5         0.9356
   6        -0.855
   7        -0.935
   8         0.8585
Sym=   A
Ene=   1.2365
Spin=  Alpha
Occup= 0
   1         0.5246
   2        -1.2596
   3         1.1503
   4        -0.2238
   5        -0.5246
   6         1.2596
   7        -1.1503
   8         0.2238
Sym=   A
Ene=   2.9525
Spin=  Alpha
Occup= 0
   1         1.565
   2        -1.5234
   3        -1.6789
   4         1.5934
   5        -1.565
   6         1.5234
   7         1.6789
   8        -1.5934
