[Molden Format]
made by Quiqbox

[Atoms] (AU)
X    1    X         -0.60000       -0.60000       -0.60000
X    2    X         -0.60000       -0.60000        0.60000
X    3    X         -0.60000        0.60000       -0.60000
X    4    X         -0.60000        0.60000        0.60000
X    5    X          0.60000       -0.60000       -0.60000
X    6    X          0.60000       -0.60000        0.60000
X    7    X          0.60000        0.60000       -0.60000
X    8    X          0.60000        0.60000        0.60000
H    9    1          0.86644        0.00000        0.00000
F    10   9         -0.86644        0.00000        0.00000

[GTO]
1 0
S    2   1.0
         1.309756377                   0.4301284983
         0.2331359749                  0.6789135305

2 0
S    2   1.0
         1.309756377                   0.4301284983
         0.2331359749                  0.6789135305

3 0
S    2   1.0
         1.309756377                   0.4301284983
         0.2331359749                  0.6789135305

4 0
S    2   1.0
         1.309756377                   0.4301284983
         0.2331359749                  0.6789135305

5 0
S    2   1.0
         1.309756377                   0.4301284983
         0.2331359749                  0.6789135305

6 0
S    2   1.0
         1.309756377                   0.4301284983
         0.2331359749                  0.6789135305

7 0
S    2   1.0
         1.309756377                   0.4301284983
         0.2331359749                  0.6789135305

8 0
S    2   1.0
         1.309756377                   0.4301284983
         0.2331359749                  0.6789135305

[MO]
Sym=   A
Ene=  -3.66154
Spin=  Alpha
Occup= 2
   1         0.39001
   2         0.39001
   3         0.39001
   4         0.39001
   5        -0.16070
   6        -0.16070
   7        -0.16070
   8        -0.16070
Sym=   A
Ene=  -1.19887
Spin=  Alpha
Occup= 2
   1         1.18353
   2        -0.00071
   3         0.00071
   4        -1.18353
   5        -0.20161
   6         0.00012
   7        -0.00012
   8         0.20161
Sym=   A
Ene=  -1.19887
Spin=  Alpha
Occup= 2
   1         0.00071
   2         1.18353
   3        -1.18353
   4        -0.00071
   5        -0.00012
   6        -0.20161
   7         0.20161
   8         0.00012
Sym=   A
Ene=  -0.42081
Spin=  Alpha
Occup= 2
   1         0.20660
   2         0.20660
   3         0.20660
   4         0.20660
   5        -0.41106
   6        -0.41106
   7        -0.41106
   8        -0.41105
Sym=   A
Ene=   0.58530
Spin=  Alpha
Occup= 2
   1         1.48931
   2        -1.48930
   3        -1.48930
   4         1.48930
   5         0.14227
   6        -0.14228
   7        -0.14228
   8         0.14229
Sym=   A
Ene=   1.38529
Spin=  Alpha
Occup= 0
   1         0.74969
   2         0.00053
   3        -0.00051
   4        -0.74971
   5        -1.38641
   6        -0.00096
   7         0.00097
   8         1.38641
Sym=   A
Ene=   1.38529
Spin=  Alpha
Occup= 0
   1         0.00052
   2        -0.74970
   3         0.74970
   4        -0.00052
   5        -0.00097
   6         1.38641
   7        -1.38641
   8         0.00097
Sym=   A
Ene=   3.11662
Spin=  Alpha
Occup= 0
   1         1.06415
   2        -1.06415
   3        -1.06415
   4         1.06415
   5        -1.82488
   6         1.82488
   7         1.82488
   8        -1.82489
