[Molden Format]
made by Quiqbox

[Atoms] (AU)
H    1    1         -1.52463        -0.88023        -0.48982
N    2    7          0.00000         0.00000         0.20995
H    3    1          0.00000         1.76047        -0.48982
H    4    1          1.52463        -0.88023        -0.48982

[GTO]
1 0
S    3   1.0
         3.425250914               0.1543289673
         0.6239137298              0.5353281423
         0.168855404               0.4446345422

2 0
S    3   1.0
        99.10616896                0.1543289673
        18.05231239                0.5353281423
         4.885660238               0.4446345422
S    3   1.0
         3.780455879              -0.09996722919
         0.8784966449              0.3995128261
         0.2857143744              0.7001154689
P    3   1.0
         3.780455879               0.155916275
         0.8784966449              0.6076837186
         0.2857143744              0.3919573931

3 0
S    3   1.0
         3.425250914               0.1543289673
         0.6239137298              0.5353281423
         0.168855404               0.4446345422

4 0
S    3   1.0
         3.425250914               0.1543289673
         0.6239137298              0.5353281423
         0.168855404               0.4446345422

[MO]
Sym=   A
Ene=  -15.30278
Spin=  Alpha
Occup= 2
   1        -0.00681
   2         0.99333
   3         0.03241
   4         0.00000
   5         0.00000
   6        -0.00500
   7        -0.00681
   8        -0.00681
Sym=   A
Ene=  -1.09459
Spin=  Alpha
Occup= 2
   1        -0.15999
   2         0.21966
   3        -0.73305
   4         0.00000
   5        -0.00000
   6         0.13640
   7        -0.15999
   8        -0.15999
Sym=   A
Ene=  -0.57776
Spin=  Alpha
Occup= 2
   1         0.42671
   2         0.00000
   3        -0.00000
   4        -0.59339
   5         0.00212
   6        -0.00000
   7         0.00177
   8        -0.42848
Sym=   A
Ene=  -0.57776
Spin=  Alpha
Occup= 2
   1        -0.24839
   2         0.00000
   3        -0.00002
   4         0.00212
   5         0.59340
   6         0.00000
   7         0.49374
   8        -0.24533
Sym=   A
Ene=  -0.35216
Spin=  Alpha
Occup= 2
   1         0.11716
   2         0.08727
   3        -0.43865
   4         0.00000
   5        -0.00000
   6        -0.89797
   7         0.11715
   8         0.11716
Sym=   A
Ene=   0.65021
Spin=  Alpha
Occup= 0
   1         0.72379
   2         0.18703
   3        -1.29355
   4         0.00000
   5         0.00009
   6         0.55741
   7         0.72364
   8         0.72379
Sym=   A
Ene=   0.74297
Spin=  Alpha
Occup= 0
   1        -0.50077
   2         0.00002
   3        -0.00013
   4         0.00455
   5        -1.06256
   6         0.00006
   7         1.00924
   8        -0.50825
Sym=   A
Ene=   0.74297
Spin=  Alpha
Occup= 0
   1        -0.87612
   2         0.00000
   3        -0.00000
   4        -1.06256
   5        -0.00455
   6         0.00000
   7         0.00432
   8         0.87179
