[Molden Format]
made by Quiqbox

[Atoms] (AU)
X    1    X         -0.60000        -0.60000        -0.60000
X    2    X         -0.60000        -0.60000         0.60000
X    3    X         -0.60000         0.60000        -0.60000
X    4    X         -0.60000         0.60000         0.60000
X    5    X          0.60000        -0.60000        -0.60000
X    6    X          0.60000        -0.60000         0.60000
X    7    X          0.60000         0.60000        -0.60000
X    8    X          0.60000         0.60000         0.60000
H    9    1          0.70014         0.00000         0.00000
H    10   1         -0.70014         0.00000         0.00000

[GTO]
1 0
S    3   1.0
         3.42525         0.15433
         0.62391         0.53533
         0.16886         0.44463

2 0
S    3   1.0
         3.42525         0.15433
         0.62391         0.53533
         0.16886         0.44463

3 0
S    3   1.0
         3.42525         0.15433
         0.62391         0.53533
         0.16886         0.44463

4 0
S    3   1.0
         3.42525         0.15433
         0.62391         0.53533
         0.16886         0.44463

5 0
S    3   1.0
         3.42525         0.15433
         0.62391         0.53533
         0.16886         0.44463

6 0
S    3   1.0
         3.42525         0.15433
         0.62391         0.53533
         0.16886         0.44463

7 0
S    3   1.0
         3.42525         0.15433
         0.62391         0.53533
         0.16886         0.44463

8 0
S    3   1.0
         3.42525         0.15433
         0.62391         0.53533
         0.16886         0.44463

[MO]
Sym=   A
Ene=  -0.53408
Spin=  Alpha
Occup= 1
   1         0.15358
   2         0.15358
   3         0.15358
   4         0.15358
   5         0.15354
   6         0.15354
   7         0.15354
   8         0.15355
Sym=   A
Ene=   0.63846
Spin=  Alpha
Occup= 0
   1         0.41363
   2         0.41363
   3         0.41363
   4         0.41363
   5        -0.41364
   6        -0.41364
   7        -0.41364
   8        -0.41365
Sym=   A
Ene=   0.83376
Spin=  Alpha
Occup= 0
   1         0.00000
   2         0.58499
   3        -0.58499
   4        -0.00000
   5         0.00000
   6         0.58495
   7        -0.58495
   8        -0.00000
Sym=   A
Ene=   0.83376
Spin=  Alpha
Occup= 0
   1         0.58499
   2         0.00000
   3         0.00000
   4        -0.58500
   5         0.58495
   6         0.00000
   7         0.00000
   8        -0.58495
Sym=   A
Ene=   2.18590
Spin=  Alpha
Occup= 0
   1         0.00000
   2        -1.27995
   3         1.27995
   4        -0.00000
   5        -0.00000
   6         1.27997
   7        -1.27997
   8         0.00000
Sym=   A
Ene=   2.18590
Spin=  Alpha
Occup= 0
   1         1.27994
   2         0.00000
   3         0.00000
   4        -1.27995
   5        -1.27997
   6        -0.00000
   7        -0.00000
   8         1.27997
Sym=   A
Ene=   2.27233
Spin=  Alpha
Occup= 0
   1         0.90508
   2        -0.90508
   3        -0.90508
   4         0.90508
   5         0.90505
   6        -0.90505
   7        -0.90505
   8         0.90505
Sym=   A
Ene=   4.33165
Spin=  Alpha
Occup= 0
   1         1.58718
   2        -1.58718
   3        -1.58718
   4         1.58718
   5        -1.58720
   6         1.58720
   7         1.58720
   8        -1.58720
Sym=   A
Ene=  -0.53408
Spin=  Beta
Occup= 1
   1         0.15351
   2         0.15351
   3         0.15351
   4         0.15350
   5         0.15362
   6         0.15362
   7         0.15362
   8         0.15361
Sym=   A
Ene=   0.63846
Spin=  Beta
Occup= 0
   1         0.41366
   2         0.41366
   3         0.41366
   4         0.41365
   5        -0.41362
   6        -0.41362
   7        -0.41362
   8        -0.41361
Sym=   A
Ene=   0.83376
Spin=  Beta
Occup= 0
   1         0.58490
   2        -0.00001
   3        -0.00001
   4        -0.58489
   5         0.58505
   6        -0.00001
   7        -0.00001
   8        -0.58504
Sym=   A
Ene=   0.83376
Spin=  Beta
Occup= 0
   1         0.00000
   2        -0.58490
   3         0.58490
   4        -0.00000
   5         0.00000
   6        -0.58504
   7         0.58504
   8        -0.00000
Sym=   A
Ene=   2.18590
Spin=  Beta
Occup= 0
   1         1.27999
   2        -0.00001
   3        -0.00001
   4        -1.27999
   5        -1.27993
   6         0.00001
   7         0.00001
   8         1.27992
Sym=   A
Ene=   2.18590
Spin=  Beta
Occup= 0
   1         0.00000
   2         1.27999
   3        -1.27999
   4        -0.00000
   5        -0.00000
   6        -1.27992
   7         1.27992
   8         0.00000
Sym=   A
Ene=   2.27233
Spin=  Beta
Occup= 0
   1         0.90501
   2        -0.90501
   3        -0.90501
   4         0.90502
   5         0.90511
   6        -0.90512
   7        -0.90512
   8         0.90512
Sym=   A
Ene=   4.33165
Spin=  Beta
Occup= 0
   1         1.58722
   2        -1.58722
   3        -1.58722
   4         1.58722
   5        -1.58716
   6         1.58716
   7         1.58716
   8        -1.58717
