[Molden Format]
made by Quiqbox

[Atoms] (AU)
X    1    X         -0.6         -0.6         -0.6
X    2    X         -0.6         -0.6          0.6
X    3    X         -0.6          0.6         -0.6
X    4    X         -0.6          0.6          0.6
X    5    X          0.6         -0.6         -0.6
X    6    X          0.6         -0.6          0.6
X    7    X          0.6          0.6         -0.6
X    8    X          0.6          0.6          0.6
N    9    7          0.0          0.0          0.21
H    10   1          0.0          1.76        -0.49
H    11   1          1.525       -0.88        -0.49
H    12   1         -1.525       -0.88        -0.49

[GTO]
1 0
S    2   1.0
         1.309756377                   0.4301284983
         0.2331359749                  0.6789135305

2 0
S    2   1.0
         1.309756377                   0.4301284983
         0.2331359749                  0.6789135305

3 0
S    2   1.0
         1.309756377                   0.4301284983
         0.2331359749                  0.6789135305

4 0
S    2   1.0
         1.309756377                   0.4301284983
         0.2331359749                  0.6789135305

5 0
S    2   1.0
         1.309756377                   0.4301284983
         0.2331359749                  0.6789135305

6 0
S    2   1.0
         1.309756377                   0.4301284983
         0.2331359749                  0.6789135305

7 0
S    2   1.0
         1.309756377                   0.4301284983
         0.2331359749                  0.6789135305

8 0
S    2   1.0
         1.309756377                   0.4301284983
         0.2331359749                  0.6789135305

[MO]
Sym=   A
Ene=  -2.386
Spin=  Alpha
Occup= 2
   1         0.055
   2         0.251
   3         0.062
   4         0.231
   5         0.055
   6         0.251
   7         0.062
   8         0.231
Sym=   A
Ene=  -0.806
Spin=  Alpha
Occup= 2
   1         0.431
   2         0.533
   3         0.227
   4         0.451
   5        -0.431
   6        -0.533
   7        -0.227
   8        -0.451
Sym=   A
Ene=  -0.789
Spin=  Alpha
Occup= 2
   1         0.303
   2         0.514
   3        -0.349
   4        -0.479
   5         0.303
   6         0.514
   7        -0.349
   8        -0.479
Sym=   A
Ene=  -0.631
Spin=  Alpha
Occup= 2
   1         0.454
   2        -0.343
   3         0.419
   4        -0.395
   5         0.454
   6        -0.343
   7         0.419
   8        -0.395
Sym=   A
Ene=   0.64
Spin=  Alpha
Occup= 2
   1         1.192
   2         0.374
   3        -0.372
   4        -1.241
   5        -1.192
   6        -0.374
   7         0.372
   8         1.241
Sym=   A
Ene=   1.217
Spin=  Alpha
Occup= 0
   1         0.936
   2        -0.855
   3        -0.935
   4         0.858
   5         0.936
   6        -0.855
   7        -0.935
   8         0.859
Sym=   A
Ene=   1.236
Spin=  Alpha
Occup= 0
   1         0.525
   2        -1.26
   3         1.15
   4        -0.224
   5        -0.525
   6         1.26
   7        -1.15
   8         0.224
Sym=   A
Ene=   2.952
Spin=  Alpha
Occup= 0
   1         1.565
   2        -1.523
   3        -1.679
   4         1.593
   5        -1.565
   6         1.523
   7         1.679
   8        -1.593
