[Molden Format]
made by Quiqbox

[Atoms] (AU)
F    1    9         -0.8664        0.0           0.0
H    2    1          0.8664        0.0           0.0

[GTO]
1 0
S    3   1.0
       166.679134                      0.1543289673
        30.36081233                    0.5353281423
         8.216820672                   0.4446345422
S    3   1.0
         6.464803249                  -0.09996722919
         1.502281245                   0.3995128261
         0.4885884864                  0.7001154689
P    3   1.0
         6.464803249                   0.155916275
         1.502281245                   0.6076837186
         0.4885884864                  0.3919573931

2 0
S    3   1.0
         3.425250914                   0.1543289673
         0.6239137298                  0.5353281423
         0.168855404                   0.4446345422

[MO]
Sym=   A
Ene=  -25.9
Spin=  Alpha
Occup= 1
   1        -0.9947
   2        -0.0226
   3        -0.003
   4         0.0
   5         0.0
   6         0.0058
Sym=   A
Ene=  -1.4712
Spin=  Alpha
Occup= 1
   1        -0.2492
   2         0.9363
   3         0.0899
   4         0.0
   5         0.0
   6         0.1584
Sym=   A
Ene=  -0.5852
Spin=  Alpha
Occup= 1
   1         0.0825
   2        -0.4346
   3         0.7023
   4         0.0
   5         0.0
   6         0.5212
Sym=   A
Ene=  -0.4642
Spin=  Alpha
Occup= 1
   1         0.0
   2         0.0
   3         0.0
   4         1.0
   5         0.0
   6         0.0
Sym=   A
Ene=  -0.4642
Spin=  Alpha
Occup= 1
   1         0.0
   2         0.0
   3         0.0
   4         0.0
   5         1.0
   6         0.0
Sym=   A
Ene=   0.629
Spin=  Alpha
Occup= 0
   1         0.0849
   2        -0.5595
   3        -0.8246
   4         0.0
   5         0.0
   6         1.0904
Sym=   A
Ene=  -25.9
Spin=  Beta
Occup= 1
   1        -0.9947
   2        -0.0226
   3        -0.003
   4         0.0
   5         0.0
   6         0.0058
Sym=   A
Ene=  -1.4712
Spin=  Beta
Occup= 1
   1        -0.2492
   2         0.9362
   3         0.0899
   4         0.0
   5         0.0
   6         0.1585
Sym=   A
Ene=  -0.5851
Spin=  Beta
Occup= 1
   1         0.0825
   2        -0.4348
   3         0.702
   4         0.0
   5         0.0
   6         0.5215
Sym=   A
Ene=  -0.4642
Spin=  Beta
Occup= 1
   1         0.0
   2         0.0
   3         0.0
   4         1.0
   5         0.0
   6         0.0
Sym=   A
Ene=  -0.4642
Spin=  Beta
Occup= 1
   1         0.0
   2         0.0
   3         0.0
   4         0.0
   5         1.0
   6         0.0
Sym=   A
Ene=   0.629
Spin=  Beta
Occup= 0
   1         0.0849
   2        -0.5594
   3        -0.8248
   4         0.0
   5         0.0
   6         1.0902
