[Molden Format]
made by Quiqbox

[Atoms] (AU)
H    1    1         -0.7        0.0        0.0
H    2    1          0.7        0.0        0.0

[GTO]
1 0
S    2   1.0
         1.309756377                   0.4301284983
         0.2331359749                  0.6789135305

2 0
S    2   1.0
         1.309756377                   0.4301284983
         0.2331359749                  0.6789135305

[MO]
Sym=   A
Ene=  -0.6
Spin=  Alpha
Occup= 2
   1         0.5
   2         0.5
Sym=   A
Ene=   0.7
Spin=  Alpha
Occup= 0
   1        -1.2
   2         1.2
