[Molden Format]
made by Quiqbox

[Atoms] (AU)
H    1    1         -1.52463        -0.88023        -0.48982
N    2    7          0.00000         0.00000         0.20995
H    3    1          0.00000         1.76047        -0.48982
H    4    1          1.52463        -0.88023        -0.48982

[GTO]
1 0
S    2   1.0
         1.30976         0.43013
         0.23314         0.67891

2 0
S    2   1.0
        37.89648         0.43013
         6.74555         0.67891
S    2   1.0
         1.46109         0.04947
         0.37057         0.96378
P    2   1.0
         1.46109         0.51154
         0.37057         0.61282

3 0
S    2   1.0
         1.30976         0.43013
         0.23314         0.67891

4 0
S    2   1.0
         1.30976         0.43013
         0.23314         0.67891

[MO]
Sym=   A
Ene=  -14.81390
Spin=  Alpha
Occup= 1
   1        -0.01513
   2         0.98412
   3         0.06738
   4         0.00000
   5        -0.00000
   6        -0.00913
   7        -0.01513
   8        -0.01513
Sym=   A
Ene=  -1.08100
Spin=  Alpha
Occup= 1
   1        -0.17104
   2         0.24891
   3        -0.71558
   4        -0.00002
   5         0.00003
   6         0.13502
   7        -0.17101
   8        -0.17119
Sym=   A
Ene=  -0.56833
Spin=  Alpha
Occup= 1
   1        -0.28366
   2         0.00006
   3        -0.00026
   4         0.52285
   5        -0.25332
   6         0.00013
   7        -0.22031
   8         0.50418
Sym=   A
Ene=  -0.56830
Spin=  Alpha
Occup= 1
   1         0.41814
   2         0.00001
   3        -0.00005
   4        -0.25340
   5        -0.52302
   6         0.00005
   7        -0.45469
   8         0.03658
Sym=   A
Ene=  -0.32883
Spin=  Alpha
Occup= 1
   1         0.13037
   2         0.11209
   3        -0.47138
   4        -0.00007
   5         0.00005
   6        -0.88640
   7         0.13030
   8         0.13052
Sym=   A
Ene=   0.66573
Spin=  Alpha
Occup= 0
   1         0.72383
   2         0.24165
   3        -1.30811
   4        -0.00068
   5         0.00062
   6         0.57625
   7         0.72355
   8         0.72474
Sym=   A
Ene=   0.78398
Spin=  Alpha
Occup= 0
   1         0.56842
   2         0.00018
   3        -0.00101
   4         0.96283
   5        -0.45245
   6         0.00034
   7         0.42342
   8        -0.99013
Sym=   A
Ene=   0.78400
Spin=  Alpha
Occup= 0
   1        -0.81601
   2         0.00006
   3        -0.00034
   4        -0.45241
   5        -0.96273
   6         0.00011
   7         0.90010
   8        -0.08354
Sym=   A
Ene=  -14.81378
Spin=  Beta
Occup= 1
   1        -0.01513
   2         0.98412
   3         0.06737
   4        -0.00000
   5         0.00000
   6        -0.00913
   7        -0.01513
   8        -0.01513
Sym=   A
Ene=  -1.08061
Spin=  Beta
Occup= 1
   1        -0.17180
   2         0.24866
   3        -0.71427
   4         0.00001
   5        -0.00001
   6         0.13457
   7        -0.17181
   8        -0.17175
Sym=   A
Ene=  -0.56828
Spin=  Beta
Occup= 1
   1        -0.41891
   2         0.00001
   3        -0.00003
   4         0.25191
   5         0.52198
   6         0.00001
   7         0.45637
   8        -0.03744
Sym=   A
Ene=  -0.56825
Spin=  Beta
Occup= 1
   1         0.28509
   2         0.00002
   3        -0.00009
   4        -0.52204
   5         0.25194
   6         0.00003
   7         0.22024
   8        -0.50527
Sym=   A
Ene=  -0.32857
Spin=  Beta
Occup= 1
   1         0.13107
   2         0.11235
   3        -0.47270
   4         0.00002
   5        -0.00002
   6        -0.88584
   7         0.13108
   8         0.13103
Sym=   A
Ene=   0.66578
Spin=  Beta
Occup= 0
   1         0.72385
   2         0.24178
   3        -1.30835
   4         0.00020
   5        -0.00012
   6         0.57721
   7         0.72384
   8         0.72358
Sym=   A
Ene=   0.78411
Spin=  Beta
Occup= 0
   1        -0.85004
   2         0.00000
   3        -0.00001
   4        -0.51319
   5        -0.93274
   6         0.00001
   7         0.87051
   8        -0.02047
Sym=   A
Ene=   0.78413
Spin=  Beta
Occup= 0
   1        -0.51427
   2         0.00005
   3        -0.00026
   4        -0.93271
   5         0.51318
   6         0.00008
   7        -0.47882
   8         0.99354
