[Molden Format]
made by Quiqbox

[Atoms] (AU)
X    1    X         -1.525       -0.88        -0.49
X    2    X          0.0          0.0          0.21
X    3    X          0.0          1.76        -0.49
X    4    X          1.525       -0.88        -0.49
H    5    1          0.7          0.0          0.0
H    6    1         -0.7          0.0          0.0

[GTO]
1 0
S    2   1.0
         1.309756377                   0.4301284983
         0.2331359749                  0.6789135305

2 0
S    2   1.0
         1.309756377                   0.4301284983
         0.2331359749                  0.6789135305

3 0
S    2   1.0
         1.309756377                   0.4301284983
         0.2331359749                  0.6789135305

4 0
S    2   1.0
         1.309756377                   0.4301284983
         0.2331359749                  0.6789135305

[MO]
Sym=   A
Ene=  -0.49
Spin=  Alpha
Occup= 2
   1         0.144
   2         0.793
   3         0.095
   4         0.144
Sym=   A
Ene=   0.739
Spin=  Alpha
Occup= 0
   1        -0.797
   2         0.0
   3         0.0
   4         0.797
Sym=   A
Ene=   0.818
Spin=  Alpha
Occup= 0
   1        -0.482
   2         0.075
   3         0.897
   4        -0.482
Sym=   A
Ene=   1.193
Spin=  Alpha
Occup= 0
   1        -0.665
   2         1.196
   3        -0.719
   4        -0.665
