[Molden Format]
made by Quiqbox

[Atoms] (AU)
H    1    1         -1.52463        -0.88023        -0.48982
N    2    7          0.00000         0.00000         0.20995
H    3    1          0.00000         1.76047        -0.48982
H    4    1          1.52463        -0.88023        -0.48982

[GTO]
1 0
S    2   1.0
         1.309756377               0.4301284983
         0.2331359749              0.6789135305

2 0
S    2   1.0
        37.89647534                0.4301284983
         6.745553507               0.6789135305
S    2   1.0
         1.461088772               0.0494717692
         0.3705706944              0.9637824081
P    2   1.0
         1.461088772               0.5115407076
         0.3705706944              0.6128198961

3 0
S    2   1.0
         1.309756377               0.4301284983
         0.2331359749              0.6789135305

4 0
S    2   1.0
         1.309756377               0.4301284983
         0.2331359749              0.6789135305

[MO]
Sym=   A
Ene=  -14.81517
Spin=  Alpha
Occup= 1
   1        -0.01513
   2         0.98412
   3         0.06737
   4         0.00000
   5         0.00000
   6        -0.00913
   7        -0.01513
   8        -0.01513
Sym=   A
Ene=  -1.08132
Spin=  Alpha
Occup= 1
   1        -0.17136
   2         0.24880
   3        -0.71502
   4        -0.00001
   5        -0.00000
   6         0.13482
   7        -0.17135
   8        -0.17143
Sym=   A
Ene=  -0.56865
Spin=  Alpha
Occup= 1
   1        -0.28919
   2         0.00003
   3        -0.00011
   4         0.52544
   5        -0.24654
   6         0.00006
   7        -0.21489
   8         0.50418
Sym=   A
Ene=  -0.56861
Spin=  Alpha
Occup= 1
   1         0.41509
   2         0.00001
   3        -0.00003
   4        -0.24658
   5        -0.52553
   6         0.00001
   7        -0.45796
   8         0.04291
Sym=   A
Ene=  -0.32936
Spin=  Alpha
Occup= 1
   1         0.13067
   2         0.11221
   3        -0.47195
   4        -0.00003
   5         0.00002
   6        -0.88615
   7         0.13067
   8         0.13075
Sym=   A
Ene=   0.66546
Spin=  Alpha
Occup= 0
   1         0.72385
   2         0.24171
   3        -1.30821
   4        -0.00027
   5         0.00027
   6         0.57667
   7         0.72371
   8         0.72419
Sym=   A
Ene=   0.78364
Spin=  Alpha
Occup= 0
   1         0.59590
   2         0.00007
   3        -0.00040
   4         0.97824
   5        -0.41888
   6         0.00013
   7         0.39148
   8        -0.98670
Sym=   A
Ene=   0.78368
Spin=  Alpha
Occup= 0
   1        -0.79563
   2         0.00003
   3        -0.00017
   4        -0.41886
   5        -0.97820
   6         0.00007
   7         0.91386
   8        -0.11794
Sym=   A
Ene=  -14.81509
Spin=  Beta
Occup= 1
   1        -0.01513
   2         0.98412
   3         0.06737
   4        -0.00000
   5         0.00000
   6        -0.00913
   7        -0.01513
   8        -0.01513
Sym=   A
Ene=  -1.08105
Spin=  Beta
Occup= 1
   1        -0.17195
   2         0.24863
   3        -0.71410
   4         0.00007
   5        -0.00005
   6         0.13452
   7        -0.17200
   8        -0.17169
Sym=   A
Ene=  -0.56861
Spin=  Beta
Occup= 1
   1        -0.42165
   2         0.00002
   3        -0.00010
   4         0.25640
   5         0.51944
   6         0.00002
   7         0.45469
   8        -0.03296
Sym=   A
Ene=  -0.56857
Spin=  Beta
Occup= 1
   1         0.28147
   2         0.00011
   3        -0.00042
   4        -0.51971
   5         0.25653
   6         0.00020
   7         0.22439
   8        -0.50558
Sym=   A
Ene=  -0.32917
Spin=  Beta
Occup= 1
   1         0.13125
   2         0.11239
   3        -0.47289
   4         0.00012
   5        -0.00010
   6        -0.88576
   7         0.13127
   8         0.13095
Sym=   A
Ene=   0.66550
Spin=  Beta
Occup= 0
   1         0.72414
   2         0.24180
   3        -1.30838
   4         0.00107
   5        -0.00079
   6         0.57735
   7         0.72431
   8         0.72270
Sym=   A
Ene=   0.78373
Spin=  Beta
Occup= 0
   1         0.83951
   2         0.00004
   3        -0.00020
   4         0.49439
   5         0.94304
   6         0.00007
   7        -0.87972
   8         0.04057
Sym=   A
Ene=   0.78377
Spin=  Beta
Occup= 0
   1        -0.53057
   2         0.00027
   3        -0.00150
   4        -0.94288
   5         0.49433
   6         0.00048
   7        -0.46048
   8         0.99358
