[Molden Format]
made by Quiqbox

[Atoms] (AU)
H    1    1         -1.524631       -0.880234       -0.489817
N    2    7          0.0             0.0             0.209949
H    3    1          0.0             1.760469       -0.489817
H    4    1          1.524631       -0.880234       -0.489817

[GTO]
1 0
S    2   1.0
         1.309756377                   0.4301284983
         0.2331359749                  0.6789135305

2 0
S    2   1.0
        37.89647534                    0.4301284983
         6.745553507                   0.6789135305
S    2   1.0
         1.461088772                   0.0494717692
         0.3705706944                  0.9637824081
P    2   1.0
         1.461088772                   0.5115407076
         0.3705706944                  0.6128198961

3 0
S    2   1.0
         1.309756377                   0.4301284983
         0.2331359749                  0.6789135305

4 0
S    2   1.0
         1.309756377                   0.4301284983
         0.2331359749                  0.6789135305

[MO]
Sym=   A
Ene=  -14.814546
Spin=  Alpha
Occup= 2
   1        -0.015127
   2         0.984119
   3         0.067372
   4        -0.0
   5         0.0
   6        -0.009133
   7        -0.015128
   8        -0.015127
Sym=   A
Ene=  -1.081025
Spin=  Alpha
Occup= 2
   1        -0.171531
   2         0.248747
   3        -0.714739
   4         0.0
   5        -4.0e-6
   6         0.134725
   7        -0.171535
   8        -0.171531
Sym=   A
Ene=  -0.568471
Spin=  Alpha
Occup= 2
   1         0.438416
   2         0.0
   3        -0.0
   4        -0.580136
   5        -3.6e-5
   6        -0.0
   7        -3.1e-5
   8        -0.438385
Sym=   A
Ene=  -0.568469
Spin=  Alpha
Occup= 2
   1        -0.253087
   2         3.0e-6
   3        -1.0e-5
   4        -3.6e-5
   5         0.580133
   6        -7.0e-6
   7         0.506225
   8        -0.253141
Sym=   A
Ene=  -0.328993
Spin=  Alpha
Occup= 2
   1         0.130894
   2         0.11228
   3        -0.472331
   4        -0.0
   5         0.0
   6        -0.885989
   7         0.130878
   8         0.130894
Sym=   A
Ene=   0.665603
Spin=  Alpha
Occup= 0
   1         0.723865
   2         0.241727
   3        -1.308227
   4         0.0
   5         4.2e-5
   6         0.576943
   7         0.723807
   8         0.723865
Sym=   A
Ene=   0.783848
Spin=  Alpha
Occup= 0
   1        -0.860648
   2         0.0
   3        -0.0
   4        -1.064301
   5         7.2e-5
   6         0.0
   7        -6.7e-5
   8         0.860715
Sym=   A
Ene=   0.783853
Spin=  Alpha
Occup= 0
   1        -0.49694
   2         1.2e-5
   3        -6.8e-5
   4        -7.2e-5
   5        -1.064303
   6         2.3e-5
   7         0.993868
   8        -0.496823
