[Molden Format]
made by Quiqbox

[Atoms] (AU)
X    1    X         -1.524631       -0.880234       -0.489817
X    2    X          0.0             0.0             0.209949
X    3    X          0.0             1.760469       -0.489817
X    4    X          1.524631       -0.880234       -0.489817
H    5    1          0.700144        0.0             0.0
H    6    1         -0.700144        0.0             0.0

[GTO]
1 0
S    2   1.0
         1.309756377                   0.4301284983
         0.2331359749                  0.6789135305

2 0
S    2   1.0
         1.309756377                   0.4301284983
         0.2331359749                  0.6789135305

3 0
S    2   1.0
         1.309756377                   0.4301284983
         0.2331359749                  0.6789135305

4 0
S    2   1.0
         1.309756377                   0.4301284983
         0.2331359749                  0.6789135305

[MO]
Sym=   A
Ene=  -0.489705
Spin=  Alpha
Occup= 1
   1         0.143632
   2         0.793414
   3         0.09475
   4         0.1435
Sym=   A
Ene=   0.738719
Spin=  Alpha
Occup= 0
   1        -0.797033
   2         0.000137
   3         0.000289
   4         0.796675
Sym=   A
Ene=   0.817934
Spin=  Alpha
Occup= 0
   1        -0.481348
   2         0.07486
   3         0.896659
   4        -0.481897
Sym=   A
Ene=   1.192819
Spin=  Alpha
Occup= 0
   1        -0.664913
   2         1.195905
   3        -0.71884
   4        -0.664974
Sym=   A
Ene=  -0.489705
Spin=  Beta
Occup= 1
   1         0.1435
   2         0.793414
   3         0.09475
   4         0.143632
Sym=   A
Ene=   0.738719
Spin=  Beta
Occup= 0
   1         0.796676
   2         0.000136
   3         0.000289
   4        -0.797032
Sym=   A
Ene=   0.817934
Spin=  Beta
Occup= 0
   1        -0.481896
   2         0.07486
   3         0.896659
   4        -0.481349
Sym=   A
Ene=   1.192819
Spin=  Beta
Occup= 0
   1        -0.664973
   2         1.195905
   3        -0.71884
   4        -0.664914
