[Molden Format]
made by Quiqbox

[Atoms] (AU)
X    1    X         -0.6         -0.6         -0.6
X    2    X         -0.6         -0.6          0.6
X    3    X         -0.6          0.6         -0.6
X    4    X         -0.6          0.6          0.6
X    5    X          0.6         -0.6         -0.6
X    6    X          0.6         -0.6          0.6
X    7    X          0.6          0.6         -0.6
X    8    X          0.6          0.6          0.6
N    9    7          0.0          0.0          0.21
H    10   1          0.0          1.76        -0.49
H    11   1          1.525       -0.88        -0.49
H    12   1         -1.525       -0.88        -0.49

[GTO]
1 0
S    2   1.0
         1.309756377                   0.4301284983
         0.2331359749                  0.6789135305

2 0
S    2   1.0
         1.309756377                   0.4301284983
         0.2331359749                  0.6789135305

3 0
S    2   1.0
         1.309756377                   0.4301284983
         0.2331359749                  0.6789135305

4 0
S    2   1.0
         1.309756377                   0.4301284983
         0.2331359749                  0.6789135305

5 0
S    2   1.0
         1.309756377                   0.4301284983
         0.2331359749                  0.6789135305

6 0
S    2   1.0
         1.309756377                   0.4301284983
         0.2331359749                  0.6789135305

7 0
S    2   1.0
         1.309756377                   0.4301284983
         0.2331359749                  0.6789135305

8 0
S    2   1.0
         1.309756377                   0.4301284983
         0.2331359749                  0.6789135305

[MO]
Sym=   A
Ene=  -2.388
Spin=  Alpha
Occup= 1
   1         0.044
   2         0.254
   3         0.055
   4         0.252
   5         0.066
   6         0.246
   7         0.065
   8         0.217
Sym=   A
Ene=  -0.824
Spin=  Alpha
Occup= 1
   1         0.136
   2         0.226
   3         0.274
   4         0.716
   5        -0.622
   6        -0.626
   7        -0.069
   8        -0.078
Sym=   A
Ene=  -0.779
Spin=  Alpha
Occup= 1
   1         0.392
   2         0.778
   3        -0.21
   4        -0.165
   5         0.009
   6         0.192
   7        -0.484
   8        -0.567
Sym=   A
Ene=  -0.624
Spin=  Alpha
Occup= 1
   1         0.509
   2        -0.183
   3         0.469
   4        -0.296
   5         0.379
   6        -0.478
   7         0.345
   8        -0.481
Sym=   A
Ene=   0.615
Spin=  Alpha
Occup= 1
   1         0.749
   2         0.658
   3         0.036
   4        -1.477
   5        -1.466
   6         0.001
   7         0.694
   8         0.815
Sym=   A
Ene=   1.238
Spin=  Alpha
Occup= 0
   1         1.132
   2        -0.275
   3        -1.262
   4         0.346
   5         0.53
   6        -1.243
   7        -0.401
   8         1.179
Sym=   A
Ene=   1.241
Spin=  Alpha
Occup= 0
   1         0.85
   2        -1.389
   3         0.852
   4        -0.12
   5        -0.375
   6         0.965
   7        -1.307
   8         0.537
Sym=   A
Ene=   2.954
Spin=  Alpha
Occup= 0
   1         1.584
   2        -1.521
   3        -1.688
   4         1.582
   5        -1.55
   6         1.521
   7         1.672
   8        -1.599
Sym=   A
Ene=  -2.388
Spin=  Beta
Occup= 1
   1         0.066
   2         0.246
   3         0.065
   4         0.217
   5         0.044
   6         0.254
   7         0.055
   8         0.252
Sym=   A
Ene=  -0.824
Spin=  Beta
Occup= 1
   1         0.622
   2         0.626
   3         0.069
   4         0.078
   5        -0.136
   6        -0.226
   7        -0.274
   8        -0.716
Sym=   A
Ene=  -0.779
Spin=  Beta
Occup= 1
   1         0.009
   2         0.192
   3        -0.484
   4        -0.567
   5         0.392
   6         0.778
   7        -0.21
   8        -0.165
Sym=   A
Ene=  -0.624
Spin=  Beta
Occup= 1
   1         0.379
   2        -0.478
   3         0.345
   4        -0.481
   5         0.509
   6        -0.183
   7         0.469
   8        -0.296
Sym=   A
Ene=   0.615
Spin=  Beta
Occup= 1
   1         1.466
   2        -0.001
   3        -0.694
   4        -0.815
   5        -0.748
   6        -0.658
   7        -0.036
   8         1.477
Sym=   A
Ene=   1.238
Spin=  Beta
Occup= 0
   1         0.532
   2        -1.247
   3        -0.395
   4         1.177
   5         1.129
   6        -0.269
   7        -1.265
   8         0.346
Sym=   A
Ene=   1.241
Spin=  Beta
Occup= 0
   1         0.373
   2        -0.96
   3         1.309
   4        -0.543
   5        -0.855
   6         1.39
   7        -0.846
   8         0.119
Sym=   A
Ene=   2.954
Spin=  Beta
Occup= 0
   1         1.55
   2        -1.521
   3        -1.672
   4         1.599
   5        -1.584
   6         1.521
   7         1.688
   8        -1.582
