[Molden Format]
made by Quiqbox

[Atoms] (AU)
X    1    X         -0.87        0.0         0.0
X    2    X          0.87        0.0         0.0
H    3    1          0.7         0.0         0.0
H    4    1         -0.7         0.0         0.0

[GTO]
1 0
S    2   1.0
         1.309756377                   0.4301284983
         0.2331359749                  0.6789135305

2 0
S    2   1.0
         1.309756377                   0.4301284983
         0.2331359749                  0.6789135305

[MO]
Sym=   A
Ene=  -0.55
Spin=  Alpha
Occup= 2
   1         0.57
   2         0.57
Sym=   A
Ene=   0.57
Spin=  Alpha
Occup= 0
   1        -1.05
   2         1.05
