[Molden Format]
made by Quiqbox

[Atoms] (AU)
X    1    X         -0.60000       -0.60000       -0.60000
X    2    X         -0.60000       -0.60000        0.60000
X    3    X         -0.60000        0.60000       -0.60000
X    4    X         -0.60000        0.60000        0.60000
X    5    X          0.60000       -0.60000       -0.60000
X    6    X          0.60000       -0.60000        0.60000
X    7    X          0.60000        0.60000       -0.60000
X    8    X          0.60000        0.60000        0.60000
H    9    1          0.70014        0.00000        0.00000
H    10   1         -0.70014        0.00000        0.00000

[GTO]
1 0
S    2   1.0
         1.309756377                   0.4301284983
         0.2331359749                  0.6789135305

2 0
S    2   1.0
         1.309756377                   0.4301284983
         0.2331359749                  0.6789135305

3 0
S    2   1.0
         1.309756377                   0.4301284983
         0.2331359749                  0.6789135305

4 0
S    2   1.0
         1.309756377                   0.4301284983
         0.2331359749                  0.6789135305

5 0
S    2   1.0
         1.309756377                   0.4301284983
         0.2331359749                  0.6789135305

6 0
S    2   1.0
         1.309756377                   0.4301284983
         0.2331359749                  0.6789135305

7 0
S    2   1.0
         1.309756377                   0.4301284983
         0.2331359749                  0.6789135305

8 0
S    2   1.0
         1.309756377                   0.4301284983
         0.2331359749                  0.6789135305

[MO]
Sym=   A
Ene=  -0.54227
Spin=  Alpha
Occup= 1
   1         0.15368
   2         0.15368
   3         0.15368
   4         0.15368
   5         0.15354
   6         0.15354
   7         0.15354
   8         0.15354
Sym=   A
Ene=   0.57855
Spin=  Alpha
Occup= 0
   1         0.41373
   2         0.41373
   3         0.41373
   4         0.41373
   5        -0.41378
   6        -0.41378
   7        -0.41378
   8        -0.41378
Sym=   A
Ene=   0.79242
Spin=  Alpha
Occup= 0
   1         0.58197
   2         0.06126
   3        -0.06126
   4        -0.58197
   5         0.58188
   6         0.06125
   7        -0.06125
   8        -0.58188
Sym=   A
Ene=   0.79242
Spin=  Alpha
Occup= 0
   1         0.06126
   2        -0.58197
   3         0.58197
   4        -0.06126
   5         0.06125
   6        -0.58188
   7         0.58188
   8        -0.06125
Sym=   A
Ene=   2.07293
Spin=  Alpha
Occup= 0
   1         1.02674
   2         0.75244
   3        -0.75244
   4        -1.02674
   5        -1.02677
   6        -0.75246
   7         0.75246
   8         1.02677
Sym=   A
Ene=   2.07293
Spin=  Alpha
Occup= 0
   1         0.75244
   2        -1.02674
   3         1.02674
   4        -0.75244
   5        -0.75246
   6         1.02677
   7        -1.02677
   8         0.75246
Sym=   A
Ene=   2.18101
Spin=  Alpha
Occup= 0
   1         0.90013
   2        -0.90013
   3        -0.90013
   4         0.90013
   5         0.90009
   6        -0.90009
   7        -0.90009
   8         0.90009
Sym=   A
Ene=   3.69451
Spin=  Alpha
Occup= 0
   1         1.59380
   2        -1.59380
   3        -1.59380
   4         1.59380
   5        -1.59383
   6         1.59383
   7         1.59383
   8        -1.59383
Sym=   A
Ene=  -0.54227
Spin=  Beta
Occup= 1
   1         0.15354
   2         0.15354
   3         0.15354
   4         0.15354
   5         0.15368
   6         0.15368
   7         0.15368
   8         0.15368
Sym=   A
Ene=   0.57855
Spin=  Beta
Occup= 0
   1         0.41378
   2         0.41378
   3         0.41378
   4         0.41378
   5        -0.41373
   6        -0.41373
   7        -0.41373
   8        -0.41373
Sym=   A
Ene=   0.79242
Spin=  Beta
Occup= 0
   1         0.58466
   2        -0.02271
   3         0.02271
   4        -0.58466
   5         0.58474
   6        -0.02271
   7         0.02271
   8        -0.58474
Sym=   A
Ene=   0.79242
Spin=  Beta
Occup= 0
   1         0.02271
   2         0.58466
   3        -0.58466
   4        -0.02271
   5         0.02271
   6         0.58474
   7        -0.58474
   8        -0.02271
Sym=   A
Ene=   2.07293
Spin=  Beta
Occup= 0
   1         0.86077
   2         0.93782
   3        -0.93782
   4        -0.86077
   5        -0.86075
   6        -0.93779
   7         0.93779
   8         0.86075
Sym=   A
Ene=   2.07293
Spin=  Beta
Occup= 0
   1         0.93782
   2        -0.86077
   3         0.86077
   4        -0.93782
   5        -0.93779
   6         0.86075
   7        -0.86075
   8         0.93779
Sym=   A
Ene=   2.18101
Spin=  Beta
Occup= 0
   1         0.90009
   2        -0.90009
   3        -0.90009
   4         0.90009
   5         0.90013
   6        -0.90013
   7        -0.90013
   8         0.90013
Sym=   A
Ene=   3.69451
Spin=  Beta
Occup= 0
   1         1.59383
   2        -1.59383
   3        -1.59383
   4         1.59383
   5        -1.59380
   6         1.59380
   7         1.59380
   8        -1.59380
