[Molden Format]
made by Quiqbox

[Atoms] (AU)
H    1    1         -1.524631       -0.880234       -0.489817
N    2    7          0.0             0.0             0.209949
H    3    1          0.0             1.760469       -0.489817
H    4    1          1.524631       -0.880234       -0.489817

[GTO]
1 0
S    2   1.0
         1.309756377                   0.4301284983
         0.2331359749                  0.6789135305

2 0
S    2   1.0
        37.89647534                    0.4301284983
         6.745553507                   0.6789135305
S    2   1.0
         1.461088772                   0.0494717692
         0.3705706944                  0.9637824081
P    2   1.0
         1.461088772                   0.5115407076
         0.3705706944                  0.6128198961

3 0
S    2   1.0
         1.309756377                   0.4301284983
         0.2331359749                  0.6789135305

4 0
S    2   1.0
         1.309756377                   0.4301284983
         0.2331359749                  0.6789135305

[MO]
Sym=   A
Ene=  -14.814551
Spin=  Alpha
Occup= 1
   1        -0.015127
   2         0.984119
   3         0.067373
   4         0.0
   5         0.0
   6        -0.009133
   7        -0.015128
   8        -0.015127
Sym=   A
Ene=  -1.081038
Spin=  Alpha
Occup= 1
   1        -0.171504
   2         0.248756
   3        -0.714781
   4         4.0e-6
   5        -6.0e-6
   6         0.134755
   7        -0.171506
   8        -0.171513
Sym=   A
Ene=  -0.568466
Spin=  Alpha
Occup= 1
   1        -0.31315
   2         2.0e-6
   3        -1.1e-5
   4         0.53877
   5        -0.215275
   6         2.1e-5
   7        -0.187807
   8         0.500984
Sym=   A
Ene=  -0.568465
Spin=  Alpha
Occup= 1
   1        -0.397661
   2         1.0e-6
   3        -3.0e-6
   4         0.215285
   5         0.538788
   6        -8.0e-6
   7         0.470022
   8        -0.072371
Sym=   A
Ene=  -0.329026
Spin=  Alpha
Occup= 1
   1         0.130785
   2         0.112251
   3        -0.472168
   4        -7.0e-6
   5         2.0e-6
   6        -0.886063
   7         0.130777
   8         0.130816
Sym=   A
Ene=   0.665601
Spin=  Alpha
Occup= 0
   1         0.72389
   2         0.241733
   3        -1.308262
   4        -2.0e-5
   5         6.5e-5
   6         0.576823
   7         0.723817
   8         0.7239
Sym=   A
Ene=   0.783854
Spin=  Alpha
Occup= 0
   1         0.798296
   2         5.0e-6
   3        -2.8e-5
   4         1.0573
   5        -0.121624
   6        -1.0e-6
   7         0.113587
   8        -0.911833
Sym=   A
Ene=   0.783858
Spin=  Alpha
Occup= 0
   1        -0.591991
   2         1.5e-5
   3        -8.8e-5
   4        -0.121616
   5        -1.057293
   6         3.0e-5
   7         0.987403
   8        -0.39527
Sym=   A
Ene=  -14.814535
Spin=  Beta
Occup= 1
   1        -0.015127
   2         0.984119
   3         0.067371
   4        -0.0
   5         0.0
   6        -0.009133
   7        -0.015127
   8        -0.015127
Sym=   A
Ene=  -1.08098
Spin=  Beta
Occup= 1
   1        -0.171573
   2         0.248734
   3        -0.714668
   4        -4.0e-6
   5        -0.0
   6         0.134691
   7        -0.171578
   8        -0.171564
Sym=   A
Ene=  -0.56846
Spin=  Beta
Occup= 1
   1        -0.448855
   2         2.0e-6
   3        -8.0e-6
   4         0.311159
   5         0.489527
   6        -0.0
   7         0.427293
   8         0.021563
Sym=   A
Ene=  -0.568459
Spin=  Beta
Occup= 1
   1         0.234243
   2         4.0e-6
   3        -1.9e-5
   4        -0.489545
   5         0.311166
   6         2.0e-5
   7         0.271598
   8        -0.505817
Sym=   A
Ene=  -0.328985
Spin=  Beta
Occup= 1
   1         0.130892
   2         0.112277
   3        -0.472316
   4         7.0e-6
   5        -8.0e-6
   6        -0.885995
   7         0.130894
   8         0.130861
Sym=   A
Ene=   0.665615
Spin=  Beta
Occup= 0
   1         0.723864
   2         0.241742
   3        -1.30827
   4         1.9e-5
   5         3.6e-5
   6         0.576942
   7         0.723794
   8         0.723854
Sym=   A
Ene=   0.78387
Spin=  Beta
Occup= 0
   1        -0.933196
   2         5.0e-6
   3        -2.9e-5
   4        -1.04852
   5        -0.182836
   6         1.0e-6
   7         0.170725
   8         0.76252
Sym=   A
Ene=   0.783873
Spin=  Beta
Occup= 0
   1        -0.341638
   2         1.0e-5
   3        -5.9e-5
   4         0.182826
   5        -1.048525
   6         3.7e-5
   7         0.979053
   8        -0.637326
