[Molden Format]
made by Quiqbox

[Atoms] (AU)
H    1    1         -0.7          0.0          0.0
H    2    1          0.7          0.0          0.0

[GTO]
1 0
S    2   1.0
         1.309756377                   0.4301284983
         0.2331359749                  0.6789135305

2 0
S    2   1.0
         1.309756377                   0.4301284983
         0.2331359749                  0.6789135305

[MO]
Sym=   A
Ene=  -0.567
Spin=  Alpha
Occup= 1
   1         0.549
   2         0.549
Sym=   A
Ene=   0.684
Spin=  Alpha
Occup= 0
   1        -1.209
   2         1.21
Sym=   A
Ene=  -0.567
Spin=  Beta
Occup= 1
   1         0.549
   2         0.549
Sym=   A
Ene=   0.684
Spin=  Beta
Occup= 0
   1        -1.21
   2         1.209
