[Molden Format]
made by Quiqbox

[Atoms] (AU)
X    1    X         -0.6            -0.6            -0.6
X    2    X         -0.6            -0.6             0.6
X    3    X         -0.6             0.6            -0.6
X    4    X         -0.6             0.6             0.6
X    5    X          0.6            -0.6            -0.6
X    6    X          0.6            -0.6             0.6
X    7    X          0.6             0.6            -0.6
X    8    X          0.6             0.6             0.6
H    9    1          0.700144        0.0             0.0
H    10   1         -0.700144        0.0             0.0

[GTO]
1 0
S    3   1.0
         3.425250914                   0.1543289673
         0.6239137298                  0.5353281423
         0.168855404                   0.4446345422

2 0
S    3   1.0
         3.425250914                   0.1543289673
         0.6239137298                  0.5353281423
         0.168855404                   0.4446345422

3 0
S    3   1.0
         3.425250914                   0.1543289673
         0.6239137298                  0.5353281423
         0.168855404                   0.4446345422

4 0
S    3   1.0
         3.425250914                   0.1543289673
         0.6239137298                  0.5353281423
         0.168855404                   0.4446345422

5 0
S    3   1.0
         3.425250914                   0.1543289673
         0.6239137298                  0.5353281423
         0.168855404                   0.4446345422

6 0
S    3   1.0
         3.425250914                   0.1543289673
         0.6239137298                  0.5353281423
         0.168855404                   0.4446345422

7 0
S    3   1.0
         3.425250914                   0.1543289673
         0.6239137298                  0.5353281423
         0.168855404                   0.4446345422

8 0
S    3   1.0
         3.425250914                   0.1543289673
         0.6239137298                  0.5353281423
         0.168855404                   0.4446345422

[MO]
Sym=   A
Ene=  -0.534076
Spin=  Alpha
Occup= 1
   1         0.153845
   2         0.153845
   3         0.153845
   4         0.153845
   5         0.153278
   6         0.153278
   7         0.153279
   8         0.153279
Sym=   A
Ene=   0.638465
Spin=  Alpha
Occup= 0
   1         0.413532
   2         0.413532
   3         0.413532
   4         0.413532
   5        -0.413742
   6        -0.413742
   7        -0.413742
   8        -0.413742
Sym=   A
Ene=   0.833764
Spin=  Alpha
Occup= 0
   1         0.0
   2         0.585147
   3        -0.585147
   4        -0.0
   5         0.0
   6         0.584794
   7        -0.584794
   8        -0.0
Sym=   A
Ene=   0.833764
Spin=  Alpha
Occup= 0
   1         0.585147
   2        -0.0
   3         0.0
   4        -0.585147
   5         0.584794
   6        -0.0
   7         0.0
   8        -0.584794
Sym=   A
Ene=   2.185901
Spin=  Alpha
Occup= 0
   1         0.0
   2         1.279876
   3        -1.279876
   4        -0.0
   5        -0.0
   6        -1.280037
   7         1.280037
   8         0.0
Sym=   A
Ene=   2.185901
Spin=  Alpha
Occup= 0
   1         1.279876
   2        -0.0
   3         0.0
   4        -1.279876
   5        -1.280037
   6         0.0
   7        -0.0
   8         1.280037
Sym=   A
Ene=   2.272331
Spin=  Alpha
Occup= 0
   1         0.905139
   2        -0.905139
   3        -0.905139
   4         0.905139
   5         0.904992
   6        -0.904992
   7        -0.904992
   8         0.904992
Sym=   A
Ene=   4.331652
Spin=  Alpha
Occup= 0
   1         1.587148
   2        -1.587148
   3        -1.587148
   4         1.587148
   5        -1.587232
   6         1.587232
   7         1.587232
   8        -1.587232
Sym=   A
Ene=  -0.534076
Spin=  Beta
Occup= 1
   1         0.153278
   2         0.153278
   3         0.153278
   4         0.153278
   5         0.153845
   6         0.153845
   7         0.153845
   8         0.153845
Sym=   A
Ene=   0.638465
Spin=  Beta
Occup= 0
   1         0.413742
   2         0.413742
   3         0.413742
   4         0.413742
   5        -0.413532
   6        -0.413532
   7        -0.413532
   8        -0.413532
Sym=   A
Ene=   0.833764
Spin=  Beta
Occup= 0
   1         0.147953
   2         0.565769
   3        -0.565769
   4        -0.147953
   5         0.148042
   6         0.56611
   7        -0.56611
   8        -0.148042
Sym=   A
Ene=   0.833764
Spin=  Beta
Occup= 0
   1         0.565769
   2        -0.147953
   3         0.147953
   4        -0.565769
   5         0.56611
   6        -0.148042
   7         0.148042
   8        -0.56611
Sym=   A
Ene=   2.185901
Spin=  Beta
Occup= 0
   1         0.201614
   2         1.264059
   3        -1.264059
   4        -0.201614
   5        -0.201589
   6        -1.2639
   7         1.2639
   8         0.201589
Sym=   A
Ene=   2.185901
Spin=  Beta
Occup= 0
   1         1.264059
   2        -0.201614
   3         0.201614
   4        -1.264059
   5        -1.2639
   6         0.201589
   7        -0.201589
   8         1.2639
Sym=   A
Ene=   2.272331
Spin=  Beta
Occup= 0
   1         0.904992
   2        -0.904992
   3        -0.904992
   4         0.904992
   5         0.905139
   6        -0.905139
   7        -0.905139
   8         0.905139
Sym=   A
Ene=   4.331652
Spin=  Beta
Occup= 0
   1         1.587232
   2        -1.587232
   3        -1.587232
   4         1.587232
   5        -1.587148
   6         1.587148
   7         1.587148
   8        -1.587148
