[Molden Format]
made by Quiqbox

[Atoms] (AU)
X    1    X         -0.6          -0.6          -0.6
X    2    X         -0.6          -0.6           0.6
X    3    X         -0.6           0.6          -0.6
X    4    X         -0.6           0.6           0.6
X    5    X          0.6          -0.6          -0.6
X    6    X          0.6          -0.6           0.6
X    7    X          0.6           0.6          -0.6
X    8    X          0.6           0.6           0.6
H    9    1          0.7001        0.0           0.0
H    10   1         -0.7001        0.0           0.0

[GTO]
1 0
S    3   1.0
         3.425250914                   0.1543289673
         0.6239137298                  0.5353281423
         0.168855404                   0.4446345422

2 0
S    3   1.0
         3.425250914                   0.1543289673
         0.6239137298                  0.5353281423
         0.168855404                   0.4446345422

3 0
S    3   1.0
         3.425250914                   0.1543289673
         0.6239137298                  0.5353281423
         0.168855404                   0.4446345422

4 0
S    3   1.0
         3.425250914                   0.1543289673
         0.6239137298                  0.5353281423
         0.168855404                   0.4446345422

5 0
S    3   1.0
         3.425250914                   0.1543289673
         0.6239137298                  0.5353281423
         0.168855404                   0.4446345422

6 0
S    3   1.0
         3.425250914                   0.1543289673
         0.6239137298                  0.5353281423
         0.168855404                   0.4446345422

7 0
S    3   1.0
         3.425250914                   0.1543289673
         0.6239137298                  0.5353281423
         0.168855404                   0.4446345422

8 0
S    3   1.0
         3.425250914                   0.1543289673
         0.6239137298                  0.5353281423
         0.168855404                   0.4446345422

[MO]
Sym=   A
Ene=  -0.5341
Spin=  Alpha
Occup= 1
   1         0.1538
   2         0.1538
   3         0.1538
   4         0.1538
   5         0.1533
   6         0.1533
   7         0.1533
   8         0.1533
Sym=   A
Ene=   0.6385
Spin=  Alpha
Occup= 0
   1         0.4135
   2         0.4135
   3         0.4135
   4         0.4135
   5        -0.4137
   6        -0.4137
   7        -0.4137
   8        -0.4137
Sym=   A
Ene=   0.8338
Spin=  Alpha
Occup= 0
   1         0.0
   2         0.5851
   3        -0.5851
   4        -0.0
   5         0.0
   6         0.5848
   7        -0.5848
   8        -0.0
Sym=   A
Ene=   0.8338
Spin=  Alpha
Occup= 0
   1         0.5851
   2        -0.0
   3         0.0
   4        -0.5851
   5         0.5848
   6        -0.0
   7         0.0
   8        -0.5848
Sym=   A
Ene=   2.1859
Spin=  Alpha
Occup= 0
   1         0.0
   2         1.2799
   3        -1.2799
   4        -0.0
   5        -0.0
   6        -1.28
   7         1.28
   8         0.0
Sym=   A
Ene=   2.1859
Spin=  Alpha
Occup= 0
   1         1.2799
   2        -0.0
   3         0.0
   4        -1.2799
   5        -1.28
   6         0.0
   7        -0.0
   8         1.28
Sym=   A
Ene=   2.2723
Spin=  Alpha
Occup= 0
   1         0.9051
   2        -0.9051
   3        -0.9051
   4         0.9051
   5         0.905
   6        -0.905
   7        -0.905
   8         0.905
Sym=   A
Ene=   4.3317
Spin=  Alpha
Occup= 0
   1         1.5871
   2        -1.5871
   3        -1.5871
   4         1.5871
   5        -1.5872
   6         1.5872
   7         1.5872
   8        -1.5872
Sym=   A
Ene=  -0.5341
Spin=  Beta
Occup= 1
   1         0.1533
   2         0.1533
   3         0.1533
   4         0.1533
   5         0.1538
   6         0.1538
   7         0.1538
   8         0.1538
Sym=   A
Ene=   0.6385
Spin=  Beta
Occup= 0
   1         0.4137
   2         0.4137
   3         0.4137
   4         0.4137
   5        -0.4135
   6        -0.4135
   7        -0.4135
   8        -0.4135
Sym=   A
Ene=   0.8338
Spin=  Beta
Occup= 0
   1         0.148
   2         0.5658
   3        -0.5658
   4        -0.148
   5         0.148
   6         0.5661
   7        -0.5661
   8        -0.148
Sym=   A
Ene=   0.8338
Spin=  Beta
Occup= 0
   1         0.5658
   2        -0.148
   3         0.148
   4        -0.5658
   5         0.5661
   6        -0.148
   7         0.148
   8        -0.5661
Sym=   A
Ene=   2.1859
Spin=  Beta
Occup= 0
   1         0.2016
   2         1.2641
   3        -1.2641
   4        -0.2016
   5        -0.2016
   6        -1.2639
   7         1.2639
   8         0.2016
Sym=   A
Ene=   2.1859
Spin=  Beta
Occup= 0
   1         1.2641
   2        -0.2016
   3         0.2016
   4        -1.2641
   5        -1.2639
   6         0.2016
   7        -0.2016
   8         1.2639
Sym=   A
Ene=   2.2723
Spin=  Beta
Occup= 0
   1         0.905
   2        -0.905
   3        -0.905
   4         0.905
   5         0.9051
   6        -0.9051
   7        -0.9051
   8         0.9051
Sym=   A
Ene=   4.3317
Spin=  Beta
Occup= 0
   1         1.5872
   2        -1.5872
   3        -1.5872
   4         1.5872
   5        -1.5871
   6         1.5871
   7         1.5871
   8        -1.5871
