[Molden Format]
made by Quiqbox

[Atoms] (AU)
H    1    1         -1.52463        -0.88023        -0.48982
N    2    7          0.00000         0.00000         0.20995
H    3    1          0.00000         1.76047        -0.48982
H    4    1          1.52463        -0.88023        -0.48982

[GTO]
1 0
S    2   1.0
         1.30976         0.43013
         0.23314         0.67891

2 0
S    2   1.0
        37.89648         0.43013
         6.74555         0.67891
S    2   1.0
         1.46109         0.04947
         0.37057         0.96378
P    2   1.0
         1.46109         0.51154
         0.37057         0.61282

3 0
S    2   1.0
         1.30976         0.43013
         0.23314         0.67891

4 0
S    2   1.0
         1.30976         0.43013
         0.23314         0.67891

[MO]
Sym=   A
Ene=  -14.81454
Spin=  Alpha
Occup= 2
   1        -0.01513
   2         0.98412
   3         0.06737
   4         0.00000
   5         0.00000
   6        -0.00913
   7        -0.01513
   8        -0.01513
Sym=   A
Ene=  -1.08101
Spin=  Alpha
Occup= 2
   1        -0.17154
   2         0.24874
   3        -0.71472
   4        -0.00000
   5        -0.00000
   6         0.13472
   7        -0.17154
   8        -0.17154
Sym=   A
Ene=  -0.56846
Spin=  Alpha
Occup= 2
   1         0.43838
   2         0.00000
   3        -0.00000
   4        -0.58013
   5         0.00006
   6        -0.00000
   7         0.00005
   8        -0.43843
Sym=   A
Ene=  -0.56846
Spin=  Alpha
Occup= 2
   1        -0.25316
   2         0.00000
   3        -0.00001
   4         0.00006
   5         0.58013
   6        -0.00000
   7         0.50623
   8        -0.25307
Sym=   A
Ene=  -0.32901
Spin=  Alpha
Occup= 2
   1         0.13084
   2         0.11226
   3        -0.47224
   4         0.00000
   5        -0.00000
   6        -0.88603
   7         0.13084
   8         0.13084
Sym=   A
Ene=   0.66561
Spin=  Alpha
Occup= 0
   1         0.72388
   2         0.24174
   3        -1.30827
   4         0.00000
   5         0.00005
   6         0.57688
   7         0.72381
   8         0.72388
Sym=   A
Ene=   0.78386
Spin=  Alpha
Occup= 0
   1        -0.86068
   2         0.00000
   3        -0.00000
   4        -1.06431
   5         0.00000
   6         0.00000
   7        -0.00000
   8         0.86068
Sym=   A
Ene=   0.78387
Spin=  Alpha
Occup= 0
   1        -0.49688
   2         0.00001
   3        -0.00008
   4        -0.00000
   5        -1.06431
   6         0.00003
   7         0.99387
   8        -0.49687
