[Molden Format]
made by Quiqbox

[Atoms] (AU)
X    1    X         -0.6        -0.6        -0.6
X    2    X         -0.6        -0.6         0.6
X    3    X         -0.6         0.6        -0.6
X    4    X         -0.6         0.6         0.6
X    5    X          0.6        -0.6        -0.6
X    6    X          0.6        -0.6         0.6
X    7    X          0.6         0.6        -0.6
X    8    X          0.6         0.6         0.6
H    9    1          0.7         0.0         0.0
H    10   1         -0.7         0.0         0.0

[GTO]
1 0
S    2   1.0
         1.309756377                   0.4301284983
         0.2331359749                  0.6789135305

2 0
S    2   1.0
         1.309756377                   0.4301284983
         0.2331359749                  0.6789135305

3 0
S    2   1.0
         1.309756377                   0.4301284983
         0.2331359749                  0.6789135305

4 0
S    2   1.0
         1.309756377                   0.4301284983
         0.2331359749                  0.6789135305

5 0
S    2   1.0
         1.309756377                   0.4301284983
         0.2331359749                  0.6789135305

6 0
S    2   1.0
         1.309756377                   0.4301284983
         0.2331359749                  0.6789135305

7 0
S    2   1.0
         1.309756377                   0.4301284983
         0.2331359749                  0.6789135305

8 0
S    2   1.0
         1.309756377                   0.4301284983
         0.2331359749                  0.6789135305

[MO]
Sym=   A
Ene=  -0.54
Spin=  Alpha
Occup= 1
   1         0.15
   2         0.15
   3         0.15
   4         0.15
   5         0.15
   6         0.15
   7         0.15
   8         0.15
Sym=   A
Ene=   0.58
Spin=  Alpha
Occup= 0
   1         0.41
   2         0.41
   3         0.41
   4         0.41
   5        -0.41
   6        -0.41
   7        -0.41
   8        -0.41
Sym=   A
Ene=   0.79
Spin=  Alpha
Occup= 0
   1         0.58
   2         0.06
   3        -0.06
   4        -0.58
   5         0.58
   6         0.06
   7        -0.06
   8        -0.58
Sym=   A
Ene=   0.79
Spin=  Alpha
Occup= 0
   1         0.06
   2        -0.58
   3         0.58
   4        -0.06
   5         0.06
   6        -0.58
   7         0.58
   8        -0.06
Sym=   A
Ene=   2.07
Spin=  Alpha
Occup= 0
   1         1.03
   2         0.75
   3        -0.75
   4        -1.03
   5        -1.03
   6        -0.75
   7         0.75
   8         1.03
Sym=   A
Ene=   2.07
Spin=  Alpha
Occup= 0
   1         0.75
   2        -1.03
   3         1.03
   4        -0.75
   5        -0.75
   6         1.03
   7        -1.03
   8         0.75
Sym=   A
Ene=   2.18
Spin=  Alpha
Occup= 0
   1         0.9
   2        -0.9
   3        -0.9
   4         0.9
   5         0.9
   6        -0.9
   7        -0.9
   8         0.9
Sym=   A
Ene=   3.69
Spin=  Alpha
Occup= 0
   1         1.59
   2        -1.59
   3        -1.59
   4         1.59
   5        -1.59
   6         1.59
   7         1.59
   8        -1.59
Sym=   A
Ene=  -0.54
Spin=  Beta
Occup= 1
   1         0.15
   2         0.15
   3         0.15
   4         0.15
   5         0.15
   6         0.15
   7         0.15
   8         0.15
Sym=   A
Ene=   0.58
Spin=  Beta
Occup= 0
   1         0.41
   2         0.41
   3         0.41
   4         0.41
   5        -0.41
   6        -0.41
   7        -0.41
   8        -0.41
Sym=   A
Ene=   0.79
Spin=  Beta
Occup= 0
   1         0.58
   2        -0.02
   3         0.02
   4        -0.58
   5         0.58
   6        -0.02
   7         0.02
   8        -0.58
Sym=   A
Ene=   0.79
Spin=  Beta
Occup= 0
   1         0.02
   2         0.58
   3        -0.58
   4        -0.02
   5         0.02
   6         0.58
   7        -0.58
   8        -0.02
Sym=   A
Ene=   2.07
Spin=  Beta
Occup= 0
   1         0.86
   2         0.94
   3        -0.94
   4        -0.86
   5        -0.86
   6        -0.94
   7         0.94
   8         0.86
Sym=   A
Ene=   2.07
Spin=  Beta
Occup= 0
   1         0.94
   2        -0.86
   3         0.86
   4        -0.94
   5        -0.94
   6         0.86
   7        -0.86
   8         0.94
Sym=   A
Ene=   2.18
Spin=  Beta
Occup= 0
   1         0.9
   2        -0.9
   3        -0.9
   4         0.9
   5         0.9
   6        -0.9
   7        -0.9
   8         0.9
Sym=   A
Ene=   3.69
Spin=  Beta
Occup= 0
   1         1.59
   2        -1.59
   3        -1.59
   4         1.59
   5        -1.59
   6         1.59
   7         1.59
   8        -1.59
