[Molden Format]
made by Quiqbox

[Atoms] (AU)
X    1    X         -0.6            -0.6            -0.6
X    2    X         -0.6            -0.6             0.6
X    3    X         -0.6             0.6            -0.6
X    4    X         -0.6             0.6             0.6
X    5    X          0.6            -0.6            -0.6
X    6    X          0.6            -0.6             0.6
X    7    X          0.6             0.6            -0.6
X    8    X          0.6             0.6             0.6
N    9    7          0.0             0.0             0.209949
H    10   1          0.0             1.760469       -0.489817
H    11   1          1.524631       -0.880234       -0.489817
H    12   1         -1.524631       -0.880234       -0.489817

[GTO]
1 0
S    2   1.0
         1.309756377                   0.4301284983
         0.2331359749                  0.6789135305

2 0
S    2   1.0
         1.309756377                   0.4301284983
         0.2331359749                  0.6789135305

3 0
S    2   1.0
         1.309756377                   0.4301284983
         0.2331359749                  0.6789135305

4 0
S    2   1.0
         1.309756377                   0.4301284983
         0.2331359749                  0.6789135305

5 0
S    2   1.0
         1.309756377                   0.4301284983
         0.2331359749                  0.6789135305

6 0
S    2   1.0
         1.309756377                   0.4301284983
         0.2331359749                  0.6789135305

7 0
S    2   1.0
         1.309756377                   0.4301284983
         0.2331359749                  0.6789135305

8 0
S    2   1.0
         1.309756377                   0.4301284983
         0.2331359749                  0.6789135305

[MO]
Sym=   A
Ene=  -2.385723
Spin=  Alpha
Occup= 2
   1         0.054601
   2         0.251301
   3         0.062318
   4         0.231022
   5         0.0546
   6         0.251301
   7         0.062318
   8         0.231023
Sym=   A
Ene=  -0.806048
Spin=  Alpha
Occup= 2
   1         0.431207
   2         0.53339
   3         0.22724
   4         0.450833
   5        -0.431197
   6        -0.53338
   7        -0.227247
   8        -0.450847
Sym=   A
Ene=  -0.788744
Spin=  Alpha
Occup= 2
   1         0.302531
   2         0.514029
   3        -0.349437
   4        -0.479229
   5         0.302542
   6         0.514042
   7        -0.349431
   8        -0.479218
Sym=   A
Ene=  -0.631016
Spin=  Alpha
Occup= 2
   1         0.45417
   2        -0.343303
   3         0.419498
   4        -0.395149
   5         0.454171
   6        -0.343299
   7         0.419499
   8        -0.395146
Sym=   A
Ene=   0.6395
Spin=  Alpha
Occup= 2
   1         1.192295
   2         0.37398
   3        -0.371589
   4        -1.240861
   5        -1.192309
   6        -0.373967
   7         0.371602
   8         1.240848
Sym=   A
Ene=   1.216798
Spin=  Alpha
Occup= 0
   1         0.935641
   2        -0.854953
   3        -0.934997
   4         0.858488
   5         0.935621
   6        -0.854954
   7        -0.934996
   8         0.858507
Sym=   A
Ene=   1.236467
Spin=  Alpha
Occup= 0
   1         0.524611
   2        -1.259597
   3         1.150343
   4        -0.223813
   5        -0.524615
   6         1.2596
   7        -1.15034
   8         0.22381
Sym=   A
Ene=   2.952485
Spin=  Alpha
Occup= 0
   1         1.564961
   2        -1.52345
   3        -1.678938
   4         1.593353
   5        -1.564962
   6         1.52345
   7         1.678939
   8        -1.593353
