[Molden Format]
made by Quiqbox

[Atoms] (AU)
X    1    X         -0.6       -0.6       -0.6
X    2    X         -0.6       -0.6        0.6
X    3    X         -0.6        0.6       -0.6
X    4    X         -0.6        0.6        0.6
X    5    X          0.6       -0.6       -0.6
X    6    X          0.6       -0.6        0.6
X    7    X          0.6        0.6       -0.6
X    8    X          0.6        0.6        0.6
N    9    7          0.0        0.0        0.2
H    10   1          0.0        1.8       -0.5
H    11   1          1.5       -0.9       -0.5
H    12   1         -1.5       -0.9       -0.5

[GTO]
1 0
S    2   1.0
         1.309756377                   0.4301284983
         0.2331359749                  0.6789135305

2 0
S    2   1.0
         1.309756377                   0.4301284983
         0.2331359749                  0.6789135305

3 0
S    2   1.0
         1.309756377                   0.4301284983
         0.2331359749                  0.6789135305

4 0
S    2   1.0
         1.309756377                   0.4301284983
         0.2331359749                  0.6789135305

5 0
S    2   1.0
         1.309756377                   0.4301284983
         0.2331359749                  0.6789135305

6 0
S    2   1.0
         1.309756377                   0.4301284983
         0.2331359749                  0.6789135305

7 0
S    2   1.0
         1.309756377                   0.4301284983
         0.2331359749                  0.6789135305

8 0
S    2   1.0
         1.309756377                   0.4301284983
         0.2331359749                  0.6789135305

[MO]
Sym=   A
Ene=  -2.4
Spin=  Alpha
Occup= 1
   1         0.0
   2         0.3
   3         0.1
   4         0.3
   5         0.1
   6         0.2
   7         0.1
   8         0.2
Sym=   A
Ene=  -0.8
Spin=  Alpha
Occup= 1
   1         0.1
   2         0.2
   3         0.3
   4         0.7
   5        -0.6
   6        -0.6
   7        -0.1
   8        -0.1
Sym=   A
Ene=  -0.8
Spin=  Alpha
Occup= 1
   1         0.4
   2         0.8
   3        -0.2
   4        -0.2
   5         0.0
   6         0.2
   7        -0.5
   8        -0.6
Sym=   A
Ene=  -0.6
Spin=  Alpha
Occup= 1
   1         0.5
   2        -0.2
   3         0.5
   4        -0.3
   5         0.4
   6        -0.5
   7         0.3
   8        -0.5
Sym=   A
Ene=   0.6
Spin=  Alpha
Occup= 1
   1         0.7
   2         0.7
   3         0.0
   4        -1.5
   5        -1.5
   6         0.0
   7         0.7
   8         0.8
Sym=   A
Ene=   1.2
Spin=  Alpha
Occup= 0
   1         1.1
   2        -0.3
   3        -1.3
   4         0.3
   5         0.5
   6        -1.2
   7        -0.4
   8         1.2
Sym=   A
Ene=   1.2
Spin=  Alpha
Occup= 0
   1         0.8
   2        -1.4
   3         0.9
   4        -0.1
   5        -0.4
   6         1.0
   7        -1.3
   8         0.5
Sym=   A
Ene=   3.0
Spin=  Alpha
Occup= 0
   1         1.6
   2        -1.5
   3        -1.7
   4         1.6
   5        -1.5
   6         1.5
   7         1.7
   8        -1.6
Sym=   A
Ene=  -2.4
Spin=  Beta
Occup= 1
   1         0.1
   2         0.2
   3         0.1
   4         0.2
   5         0.0
   6         0.3
   7         0.1
   8         0.3
Sym=   A
Ene=  -0.8
Spin=  Beta
Occup= 1
   1         0.6
   2         0.6
   3         0.1
   4         0.1
   5        -0.1
   6        -0.2
   7        -0.3
   8        -0.7
Sym=   A
Ene=  -0.8
Spin=  Beta
Occup= 1
   1         0.0
   2         0.2
   3        -0.5
   4        -0.6
   5         0.4
   6         0.8
   7        -0.2
   8        -0.2
Sym=   A
Ene=  -0.6
Spin=  Beta
Occup= 1
   1         0.4
   2        -0.5
   3         0.3
   4        -0.5
   5         0.5
   6        -0.2
   7         0.5
   8        -0.3
Sym=   A
Ene=   0.6
Spin=  Beta
Occup= 1
   1         1.5
   2        -0.0
   3        -0.7
   4        -0.8
   5        -0.7
   6        -0.7
   7        -0.0
   8         1.5
Sym=   A
Ene=   1.2
Spin=  Beta
Occup= 0
   1         0.5
   2        -1.2
   3        -0.4
   4         1.2
   5         1.1
   6        -0.3
   7        -1.3
   8         0.3
Sym=   A
Ene=   1.2
Spin=  Beta
Occup= 0
   1         0.4
   2        -1.0
   3         1.3
   4        -0.5
   5        -0.9
   6         1.4
   7        -0.8
   8         0.1
Sym=   A
Ene=   3.0
Spin=  Beta
Occup= 0
   1         1.5
   2        -1.5
   3        -1.7
   4         1.6
   5        -1.6
   6         1.5
   7         1.7
   8        -1.6
