[Molden Format]
made by Quiqbox

[Atoms] (AU)
X    1    X         -0.8664        0.0           0.0
X    2    X          0.8664        0.0           0.0
H    3    1          0.7001        0.0           0.0
H    4    1         -0.7001        0.0           0.0

[GTO]
1 0
S    2   1.0
         1.309756377                   0.4301284983
         0.2331359749                  0.6789135305

2 0
S    2   1.0
         1.309756377                   0.4301284983
         0.2331359749                  0.6789135305

[MO]
Sym=   A
Ene=  -0.5528
Spin=  Alpha
Occup= 1
   1         0.5689
   2         0.5685
Sym=   A
Ene=   0.5719
Spin=  Alpha
Occup= 0
   1        -1.0495
   2         1.0497
Sym=   A
Ene=  -0.5528
Spin=  Beta
Occup= 1
   1         0.5685
   2         0.5689
Sym=   A
Ene=   0.5719
Spin=  Beta
Occup= 0
   1        -1.0497
   2         1.0495
