[Molden Format]
made by Quiqbox

[Atoms] (AU)
F    1    9           -0.86644         0.00000         0.00000
H    2    1            0.86644         0.00000         0.00000

[GTO]
1 0
S    3   1.0
       166.67913         0.15433
        30.36081         0.53533
         8.21682         0.44463
S    3   1.0
         6.46480        -0.09997
         1.50228         0.39951
         0.48859         0.70012
P    3   1.0
         6.46480         0.15592
         1.50228         0.60768
         0.48859         0.39196

2 0
S    3   1.0
         3.42525         0.15433
         0.62391         0.53533
         0.16886         0.44463

[MO]
Sym=   A
Ene=  -25.90003
Spin=  Alpha
Occup= 2
   1    -0.99470
   2    -0.02264
   3    -0.00296
   4     0.00000
   5     0.00000
   6     0.00578
Sym=   A
Ene=  -1.47120
Spin=  Alpha
Occup= 2
   1    -0.24919
   2     0.93624
   3     0.08988
   4     0.00000
   5     0.00000
   6     0.15845
Sym=   A
Ene=  -0.58517
Spin=  Alpha
Occup= 2
   1     0.08248
   2    -0.43466
   3     0.70214
   4     0.00000
   5     0.00000
   6     0.52137
Sym=   A
Ene=  -0.46416
Spin=  Alpha
Occup= 2
   1     0.00000
   2     0.00000
   3     0.00000
   4     1.00000
   5     0.00000
   6     0.00000
Sym=   A
Ene=  -0.46416
Spin=  Alpha
Occup= 2
   1     0.00000
   2     0.00000
   3     0.00000
   4     0.00000
   5     1.00000
   6     0.00000
Sym=   A
Ene=   0.62903
Spin=  Alpha
Occup= 0
   1     0.08489
   2    -0.55948
   3    -0.82470
   4     0.00000
   5     0.00000
   6     1.09032
