[Molden Format]
made by Quiqbox

[Atoms] (AU)
X    1    X         -0.60000        -0.60000        -0.60000
X    2    X         -0.60000        -0.60000         0.60000
X    3    X         -0.60000         0.60000        -0.60000
X    4    X         -0.60000         0.60000         0.60000
X    5    X          0.60000        -0.60000        -0.60000
X    6    X          0.60000        -0.60000         0.60000
X    7    X          0.60000         0.60000        -0.60000
X    8    X          0.60000         0.60000         0.60000
H    9    1          0.86644         0.00000         0.00000
F    10   9         -0.86644         0.00000         0.00000

[GTO]
1 0
S    3   1.0
         3.42525         0.15433
         0.62391         0.53533
         0.16886         0.44463

2 0
S    3   1.0
         3.42525         0.15433
         0.62391         0.53533
         0.16886         0.44463

3 0
S    3   1.0
         3.42525         0.15433
         0.62391         0.53533
         0.16886         0.44463

4 0
S    3   1.0
         3.42525         0.15433
         0.62391         0.53533
         0.16886         0.44463

5 0
S    3   1.0
         3.42525         0.15433
         0.62391         0.53533
         0.16886         0.44463

6 0
S    3   1.0
         3.42525         0.15433
         0.62391         0.53533
         0.16886         0.44463

7 0
S    3   1.0
         3.42525         0.15433
         0.62391         0.53533
         0.16886         0.44463

8 0
S    3   1.0
         3.42525         0.15433
         0.62391         0.53533
         0.16886         0.44463

[MO]
Sym=   A
Ene=  -3.56838
Spin=  Alpha
Occup= 2
   1         0.38586
   2         0.38586
   3         0.38586
   4         0.38586
   5        -0.15274
   6        -0.15274
   7        -0.15274
   8        -0.15274
Sym=   A
Ene=  -1.10497
Spin=  Alpha
Occup= 2
   1         1.16528
   2         0.02397
   3        -0.02397
   4        -1.16528
   5        -0.16639
   6        -0.00342
   7         0.00342
   8         0.16639
Sym=   A
Ene=  -1.10497
Spin=  Alpha
Occup= 2
   1         0.02397
   2        -1.16528
   3         1.16528
   4        -0.02397
   5        -0.00342
   6         0.16639
   7        -0.16639
   8         0.00342
Sym=   A
Ene=  -0.36624
Spin=  Alpha
Occup= 2
   1         0.21399
   2         0.21399
   3         0.21399
   4         0.21399
   5        -0.41394
   6        -0.41394
   7        -0.41394
   8        -0.41394
Sym=   A
Ene=   0.61544
Spin=  Alpha
Occup= 2
   1         1.45618
   2        -1.45618
   3        -1.45618
   4         1.45618
   5         0.20820
   6        -0.20820
   7        -0.20820
   8         0.20820
Sym=   A
Ene=   1.51913
Spin=  Alpha
Occup= 0
   1         0.01433
   2        -0.78856
   3         0.78856
   4        -0.01433
   5        -0.02539
   6         1.39719
   7        -1.39719
   8         0.02539
Sym=   A
Ene=   1.51913
Spin=  Alpha
Occup= 0
   1         0.78856
   2         0.01433
   3        -0.01433
   4        -0.78856
   5        -1.39719
   6        -0.02539
   7         0.02539
   8         1.39719
Sym=   A
Ene=   3.58338
Spin=  Alpha
Occup= 0
   1         1.10357
   2        -1.10357
   3        -1.10357
   4         1.10357
   5        -1.81520
   6         1.81520
   7         1.81520
   8        -1.81520
