[Molden Format]
made by Quiqbox

[Atoms] (AU)
H    1    1         -1.52463       -0.88023       -0.48982
N    2    7          0.00000        0.00000        0.20995
H    3    1          0.00000        1.76047       -0.48982
H    4    1          1.52463       -0.88023       -0.48982

[GTO]
1 0
S    2   1.0
         1.309756377                   0.4301284983
         0.2331359749                  0.6789135305

2 0
S    2   1.0
        37.89647534                    0.4301284983
         6.745553507                   0.6789135305
S    2   1.0
         1.461088772                   0.0494717692
         0.3705706944                  0.9637824081
P    2   1.0
         1.461088772                   0.5115407076
         0.3705706944                  0.6128198961

3 0
S    2   1.0
         1.309756377                   0.4301284983
         0.2331359749                  0.6789135305

4 0
S    2   1.0
         1.309756377                   0.4301284983
         0.2331359749                  0.6789135305

[MO]
Sym=   A
Ene=  -14.81455
Spin=  Alpha
Occup= 1
   1        -0.01513
   2         0.98412
   3         0.06737
   4         0.00000
   5         0.00000
   6        -0.00913
   7        -0.01513
   8        -0.01513
Sym=   A
Ene=  -1.08104
Spin=  Alpha
Occup= 1
   1        -0.17150
   2         0.24876
   3        -0.71478
   4         0.00000
   5        -0.00001
   6         0.13476
   7        -0.17151
   8        -0.17151
Sym=   A
Ene=  -0.56847
Spin=  Alpha
Occup= 1
   1        -0.31315
   2         0.00000
   3        -0.00001
   4         0.53877
   5        -0.21527
   6         0.00002
   7        -0.18781
   8         0.50098
Sym=   A
Ene=  -0.56847
Spin=  Alpha
Occup= 1
   1        -0.39766
   2         0.00000
   3        -0.00000
   4         0.21528
   5         0.53879
   6        -0.00001
   7         0.47002
   8        -0.07237
Sym=   A
Ene=  -0.32903
Spin=  Alpha
Occup= 1
   1         0.13078
   2         0.11225
   3        -0.47217
   4        -0.00001
   5         0.00000
   6        -0.88606
   7         0.13078
   8         0.13082
Sym=   A
Ene=   0.66560
Spin=  Alpha
Occup= 0
   1         0.72389
   2         0.24173
   3        -1.30826
   4        -0.00002
   5         0.00007
   6         0.57682
   7         0.72382
   8         0.72390
Sym=   A
Ene=   0.78385
Spin=  Alpha
Occup= 0
   1         0.79830
   2         0.00000
   3        -0.00003
   4         1.05730
   5        -0.12162
   6        -0.00000
   7         0.11359
   8        -0.91183
Sym=   A
Ene=   0.78386
Spin=  Alpha
Occup= 0
   1        -0.59199
   2         0.00002
   3        -0.00009
   4        -0.12162
   5        -1.05729
   6         0.00003
   7         0.98740
   8        -0.39527
Sym=   A
Ene=  -14.81453
Spin=  Beta
Occup= 1
   1        -0.01513
   2         0.98412
   3         0.06737
   4        -0.00000
   5         0.00000
   6        -0.00913
   7        -0.01513
   8        -0.01513
Sym=   A
Ene=  -1.08098
Spin=  Beta
Occup= 1
   1        -0.17157
   2         0.24873
   3        -0.71467
   4        -0.00000
   5        -0.00000
   6         0.13469
   7        -0.17158
   8        -0.17156
Sym=   A
Ene=  -0.56846
Spin=  Beta
Occup= 1
   1        -0.44886
   2         0.00000
   3        -0.00001
   4         0.31116
   5         0.48953
   6        -0.00000
   7         0.42729
   8         0.02156
Sym=   A
Ene=  -0.56846
Spin=  Beta
Occup= 1
   1         0.23424
   2         0.00000
   3        -0.00002
   4        -0.48955
   5         0.31117
   6         0.00002
   7         0.27160
   8        -0.50582
Sym=   A
Ene=  -0.32898
Spin=  Beta
Occup= 1
   1         0.13089
   2         0.11228
   3        -0.47232
   4         0.00001
   5        -0.00001
   6        -0.88599
   7         0.13089
   8         0.13086
Sym=   A
Ene=   0.66561
Spin=  Beta
Occup= 0
   1         0.72386
   2         0.24174
   3        -1.30827
   4         0.00002
   5         0.00004
   6         0.57694
   7         0.72379
   8         0.72385
Sym=   A
Ene=   0.78387
Spin=  Beta
Occup= 0
   1        -0.93320
   2         0.00001
   3        -0.00003
   4        -1.04852
   5        -0.18284
   6         0.00000
   7         0.17072
   8         0.76252
Sym=   A
Ene=   0.78387
Spin=  Beta
Occup= 0
   1        -0.34164
   2         0.00001
   3        -0.00006
   4         0.18283
   5        -1.04853
   6         0.00004
   7         0.97905
   8        -0.63733
