[Molden Format]
made by Quiqbox

[Atoms] (AU)
X    1    X         -0.6        -0.6        -0.6
X    2    X         -0.6        -0.6         0.6
X    3    X         -0.6         0.6        -0.6
X    4    X         -0.6         0.6         0.6
X    5    X          0.6        -0.6        -0.6
X    6    X          0.6        -0.6         0.6
X    7    X          0.6         0.6        -0.6
X    8    X          0.6         0.6         0.6
H    9    1          0.7         0.0         0.0
H    10   1         -0.7         0.0         0.0

[GTO]
1 0
S    3   1.0
         3.425250914                   0.1543289673
         0.6239137298                  0.5353281423
         0.168855404                   0.4446345422

2 0
S    3   1.0
         3.425250914                   0.1543289673
         0.6239137298                  0.5353281423
         0.168855404                   0.4446345422

3 0
S    3   1.0
         3.425250914                   0.1543289673
         0.6239137298                  0.5353281423
         0.168855404                   0.4446345422

4 0
S    3   1.0
         3.425250914                   0.1543289673
         0.6239137298                  0.5353281423
         0.168855404                   0.4446345422

5 0
S    3   1.0
         3.425250914                   0.1543289673
         0.6239137298                  0.5353281423
         0.168855404                   0.4446345422

6 0
S    3   1.0
         3.425250914                   0.1543289673
         0.6239137298                  0.5353281423
         0.168855404                   0.4446345422

7 0
S    3   1.0
         3.425250914                   0.1543289673
         0.6239137298                  0.5353281423
         0.168855404                   0.4446345422

8 0
S    3   1.0
         3.425250914                   0.1543289673
         0.6239137298                  0.5353281423
         0.168855404                   0.4446345422

[MO]
Sym=   A
Ene=  -0.53
Spin=  Alpha
Occup= 2
   1         0.15
   2         0.15
   3         0.15
   4         0.15
   5         0.15
   6         0.15
   7         0.15
   8         0.15
Sym=   A
Ene=   0.64
Spin=  Alpha
Occup= 0
   1         0.41
   2         0.41
   3         0.41
   4         0.41
   5        -0.41
   6        -0.41
   7        -0.41
   8        -0.41
Sym=   A
Ene=   0.83
Spin=  Alpha
Occup= 0
   1         0.41
   2         0.42
   3        -0.42
   4        -0.41
   5         0.41
   6         0.42
   7        -0.42
   8        -0.41
Sym=   A
Ene=   0.83
Spin=  Alpha
Occup= 0
   1         0.42
   2        -0.41
   3         0.41
   4        -0.42
   5         0.42
   6        -0.41
   7         0.41
   8        -0.42
Sym=   A
Ene=   2.19
Spin=  Alpha
Occup= 0
   1         0.85
   2        -0.95
   3         0.95
   4        -0.85
   5        -0.85
   6         0.95
   7        -0.95
   8         0.85
Sym=   A
Ene=   2.19
Spin=  Alpha
Occup= 0
   1         0.95
   2         0.85
   3        -0.85
   4        -0.95
   5        -0.95
   6        -0.85
   7         0.85
   8         0.95
Sym=   A
Ene=   2.27
Spin=  Alpha
Occup= 0
   1         0.91
   2        -0.91
   3        -0.91
   4         0.91
   5         0.91
   6        -0.91
   7        -0.91
   8         0.91
Sym=   A
Ene=   4.33
Spin=  Alpha
Occup= 0
   1         1.59
   2        -1.59
   3        -1.59
   4         1.59
   5        -1.59
   6         1.59
   7         1.59
   8        -1.59
