[Molden Format]
made by Quiqbox

[Atoms] (AU)
H    1    1         -1.52463        -0.88023        -0.48982
N    2    7          0.00000         0.00000         0.20995
H    3    1          0.00000         1.76047        -0.48982
H    4    1          1.52463        -0.88023        -0.48982

[GTO]
1 0
S    3   1.0
         3.42525         0.15433
         0.62391         0.53533
         0.16886         0.44463

2 0
S    3   1.0
        99.10617         0.15433
        18.05231         0.53533
         4.88566         0.44463
S    3   1.0
         3.78046        -0.09997
         0.87850         0.39951
         0.28571         0.70012
P    3   1.0
         3.78046         0.15592
         0.87850         0.60768
         0.28571         0.39196

3 0
S    3   1.0
         3.42525         0.15433
         0.62391         0.53533
         0.16886         0.44463

4 0
S    3   1.0
         3.42525         0.15433
         0.62391         0.53533
         0.16886         0.44463

[MO]
Sym=   A
Ene=  -15.30278
Spin=  Alpha
Occup= 2
   1        -0.00681
   2         0.99333
   3         0.03241
   4         0.00000
   5         0.00000
   6        -0.00500
   7        -0.00681
   8        -0.00681
Sym=   A
Ene=  -1.09459
Spin=  Alpha
Occup= 2
   1        -0.15999
   2         0.21966
   3        -0.73305
   4        -0.00000
   5        -0.00000
   6         0.13640
   7        -0.15999
   8        -0.15999
Sym=   A
Ene=  -0.57776
Spin=  Alpha
Occup= 2
   1         0.42749
   2         0.00000
   3        -0.00000
   4        -0.59340
   5         0.00026
   6        -0.00000
   7         0.00022
   8        -0.42770
Sym=   A
Ene=  -0.57776
Spin=  Alpha
Occup= 2
   1        -0.24706
   2         0.00000
   3        -0.00001
   4         0.00026
   5         0.59340
   6        -0.00000
   7         0.49374
   8        -0.24669
Sym=   A
Ene=  -0.35216
Spin=  Alpha
Occup= 2
   1         0.11716
   2         0.08727
   3        -0.43865
   4         0.00000
   5        -0.00000
   6        -0.89797
   7         0.11716
   8         0.11716
Sym=   A
Ene=   0.65021
Spin=  Alpha
Occup= 0
   1         0.72377
   2         0.18703
   3        -1.29354
   4         0.00000
   5         0.00006
   6         0.55741
   7         0.72368
   8         0.72377
Sym=   A
Ene=   0.74297
Spin=  Alpha
Occup= 0
   1         0.87395
   2         0.00000
   3        -0.00000
   4         1.06257
   5        -0.00002
   6         0.00000
   7         0.00002
   8        -0.87397
Sym=   A
Ene=   0.74297
Spin=  Alpha
Occup= 0
   1        -0.50455
   2         0.00001
   3        -0.00009
   4        -0.00002
   5        -1.06257
   6         0.00004
   7         1.00922
   8        -0.50452
