[Molden Format]
made by Quiqbox

[Atoms] (AU)
X    1    X         -0.60000        -0.60000        -0.60000
X    2    X         -0.60000        -0.60000         0.60000
X    3    X         -0.60000         0.60000        -0.60000
X    4    X         -0.60000         0.60000         0.60000
X    5    X          0.60000        -0.60000        -0.60000
X    6    X          0.60000        -0.60000         0.60000
X    7    X          0.60000         0.60000        -0.60000
X    8    X          0.60000         0.60000         0.60000
H    9    1          0.70014         0.00000         0.00000
H    10   1         -0.70014         0.00000         0.00000

[GTO]
1 0
S    3   1.0
         3.425250914               0.1543289673
         0.6239137298              0.5353281423
         0.168855404               0.4446345422

2 0
S    3   1.0
         3.425250914               0.1543289673
         0.6239137298              0.5353281423
         0.168855404               0.4446345422

3 0
S    3   1.0
         3.425250914               0.1543289673
         0.6239137298              0.5353281423
         0.168855404               0.4446345422

4 0
S    3   1.0
         3.425250914               0.1543289673
         0.6239137298              0.5353281423
         0.168855404               0.4446345422

5 0
S    3   1.0
         3.425250914               0.1543289673
         0.6239137298              0.5353281423
         0.168855404               0.4446345422

6 0
S    3   1.0
         3.425250914               0.1543289673
         0.6239137298              0.5353281423
         0.168855404               0.4446345422

7 0
S    3   1.0
         3.425250914               0.1543289673
         0.6239137298              0.5353281423
         0.168855404               0.4446345422

8 0
S    3   1.0
         3.425250914               0.1543289673
         0.6239137298              0.5353281423
         0.168855404               0.4446345422

[MO]
Sym=   A
Ene=  -0.53408
Spin=  Alpha
Occup= 1
   1         0.15357
   2         0.15357
   3         0.15360
   4         0.15360
   5         0.15353
   6         0.15353
   7         0.15355
   8         0.15355
Sym=   A
Ene=   0.63846
Spin=  Alpha
Occup= 0
   1         0.41360
   2         0.41360
   3         0.41366
   4         0.41366
   5        -0.41364
   6        -0.41364
   7        -0.41365
   8        -0.41365
Sym=   A
Ene=   0.83376
Spin=  Alpha
Occup= 0
   1         0.41359
   2        -0.41359
   3         0.41363
   4        -0.41363
   5         0.41365
   6        -0.41365
   7         0.41368
   8        -0.41368
Sym=   A
Ene=   0.83376
Spin=  Alpha
Occup= 0
   1         0.41363
   2         0.41363
   3        -0.41359
   4        -0.41359
   5         0.41366
   6         0.41366
   7        -0.41367
   8        -0.41367
Sym=   A
Ene=   2.18590
Spin=  Alpha
Occup= 0
   1         0.90508
   2         0.90509
   3        -0.90507
   4        -0.90507
   5        -0.90506
   6        -0.90506
   7         0.90505
   8         0.90505
Sym=   A
Ene=   2.18590
Spin=  Alpha
Occup= 0
   1         0.90507
   2        -0.90507
   3         0.90509
   4        -0.90509
   5        -0.90503
   6         0.90503
   7        -0.90508
   8         0.90508
Sym=   A
Ene=   2.27233
Spin=  Alpha
Occup= 0
   1         0.90502
   2        -0.90502
   3        -0.90502
   4         0.90502
   5         0.90513
   6        -0.90513
   7        -0.90509
   8         0.90509
Sym=   A
Ene=   4.33165
Spin=  Alpha
Occup= 0
   1         1.58722
   2        -1.58722
   3        -1.58721
   4         1.58721
   5        -1.58718
   6         1.58718
   7         1.58716
   8        -1.58716
Sym=   A
Ene=  -0.53408
Spin=  Beta
Occup= 1
   1         0.15356
   2         0.15356
   3         0.15355
   4         0.15355
   5         0.15357
   6         0.15357
   7         0.15356
   8         0.15356
Sym=   A
Ene=   0.63846
Spin=  Beta
Occup= 0
   1         0.41365
   2         0.41365
   3         0.41363
   4         0.41363
   5        -0.41364
   6        -0.41364
   7        -0.41363
   8        -0.41363
Sym=   A
Ene=   0.83376
Spin=  Beta
Occup= 0
   1         0.41362
   2         0.41362
   3        -0.41363
   4        -0.41363
   5         0.41365
   6         0.41365
   7        -0.41365
   8        -0.41365
Sym=   A
Ene=   0.83376
Spin=  Beta
Occup= 0
   1         0.41363
   2        -0.41363
   3         0.41362
   4        -0.41362
   5         0.41366
   6        -0.41366
   7         0.41364
   8        -0.41364
Sym=   A
Ene=   2.18590
Spin=  Beta
Occup= 0
   1         0.90507
   2         0.90507
   3        -0.90508
   4        -0.90507
   5        -0.90506
   6        -0.90506
   7         0.90506
   8         0.90506
Sym=   A
Ene=   2.18590
Spin=  Beta
Occup= 0
   1         0.90509
   2        -0.90508
   3         0.90506
   4        -0.90506
   5        -0.90506
   6         0.90506
   7        -0.90506
   8         0.90506
Sym=   A
Ene=   2.27233
Spin=  Beta
Occup= 0
   1         0.90504
   2        -0.90504
   3        -0.90506
   4         0.90506
   5         0.90508
   6        -0.90508
   7        -0.90508
   8         0.90508
Sym=   A
Ene=   4.33165
Spin=  Beta
Occup= 0
   1         1.58719
   2        -1.58719
   3        -1.58720
   4         1.58720
   5        -1.58718
   6         1.58718
   7         1.58719
   8        -1.58719
