[Molden Format]
made by Quiqbox

[Atoms] (AU)
X    1    X         -0.60000       -0.60000       -0.60000
X    2    X         -0.60000       -0.60000        0.60000
X    3    X         -0.60000        0.60000       -0.60000
X    4    X         -0.60000        0.60000        0.60000
X    5    X          0.60000       -0.60000       -0.60000
X    6    X          0.60000       -0.60000        0.60000
X    7    X          0.60000        0.60000       -0.60000
X    8    X          0.60000        0.60000        0.60000
H    9    1          0.86644        0.00000        0.00000
F    10   9         -0.86644        0.00000        0.00000

[GTO]
1 0
S    3   1.0
         3.425250914                   0.1543289673
         0.6239137298                  0.5353281423
         0.168855404                   0.4446345422

2 0
S    3   1.0
         3.425250914                   0.1543289673
         0.6239137298                  0.5353281423
         0.168855404                   0.4446345422

3 0
S    3   1.0
         3.425250914                   0.1543289673
         0.6239137298                  0.5353281423
         0.168855404                   0.4446345422

4 0
S    3   1.0
         3.425250914                   0.1543289673
         0.6239137298                  0.5353281423
         0.168855404                   0.4446345422

5 0
S    3   1.0
         3.425250914                   0.1543289673
         0.6239137298                  0.5353281423
         0.168855404                   0.4446345422

6 0
S    3   1.0
         3.425250914                   0.1543289673
         0.6239137298                  0.5353281423
         0.168855404                   0.4446345422

7 0
S    3   1.0
         3.425250914                   0.1543289673
         0.6239137298                  0.5353281423
         0.168855404                   0.4446345422

8 0
S    3   1.0
         3.425250914                   0.1543289673
         0.6239137298                  0.5353281423
         0.168855404                   0.4446345422

[MO]
Sym=   A
Ene=  -3.56833
Spin=  Alpha
Occup= 1
   1         0.38586
   2         0.38586
   3         0.38586
   4         0.38586
   5        -0.15274
   6        -0.15274
   7        -0.15274
   8        -0.15274
Sym=   A
Ene=  -1.10494
Spin=  Alpha
Occup= 1
   1         1.16554
   2        -0.00011
   3         0.00010
   4        -1.16553
   5        -0.16644
   6         0.00002
   7        -0.00001
   8         0.16643
Sym=   A
Ene=  -1.10494
Spin=  Alpha
Occup= 1
   1         0.00011
   2         1.16553
   3        -1.16553
   4        -0.00010
   5        -0.00002
   6        -0.16643
   7         0.16643
   8         0.00002
Sym=   A
Ene=  -0.36627
Spin=  Alpha
Occup= 1
   1         0.21398
   2         0.21399
   3         0.21398
   4         0.21400
   5        -0.41393
   6        -0.41394
   7        -0.41394
   8        -0.41395
Sym=   A
Ene=   0.61546
Spin=  Alpha
Occup= 1
   1         1.45620
   2        -1.45619
   3        -1.45619
   4         1.45617
   5         0.20815
   6        -0.20819
   7        -0.20818
   8         0.20821
Sym=   A
Ene=   1.51911
Spin=  Alpha
Occup= 0
   1         0.00005
   2         0.78868
   3        -0.78867
   4        -0.00006
   5        -0.00010
   6        -1.39742
   7         1.39742
   8         0.00010
Sym=   A
Ene=   1.51911
Spin=  Alpha
Occup= 0
   1         0.78865
   2        -0.00002
   3         0.00009
   4        -0.78871
   5        -1.39742
   6         0.00009
   7        -0.00010
   8         1.39742
Sym=   A
Ene=   3.58336
Spin=  Alpha
Occup= 0
   1         1.10356
   2        -1.10356
   3        -1.10356
   4         1.10356
   5        -1.81521
   6         1.81521
   7         1.81521
   8        -1.81520
Sym=   A
Ene=  -3.56833
Spin=  Beta
Occup= 1
   1         0.38586
   2         0.38586
   3         0.38586
   4         0.38586
   5        -0.15274
   6        -0.15274
   7        -0.15274
   8        -0.15274
Sym=   A
Ene=  -1.10494
Spin=  Beta
Occup= 1
   1         0.00005
   2        -1.16553
   3         1.16553
   4        -0.00005
   5        -0.00001
   6         0.16643
   7        -0.16643
   8         0.00001
Sym=   A
Ene=  -1.10494
Spin=  Beta
Occup= 1
   1         1.16553
   2         0.00005
   3        -0.00005
   4        -1.16553
   5        -0.16643
   6        -0.00001
   7         0.00001
   8         0.16643
Sym=   A
Ene=  -0.36627
Spin=  Beta
Occup= 1
   1         0.21400
   2         0.21398
   3         0.21399
   4         0.21398
   5        -0.41395
   6        -0.41394
   7        -0.41394
   8        -0.41393
Sym=   A
Ene=   0.61547
Spin=  Beta
Occup= 1
   1         1.45616
   2        -1.45618
   3        -1.45617
   4         1.45619
   5         0.20823
   6        -0.20819
   7        -0.20821
   8         0.20817
Sym=   A
Ene=   1.51911
Spin=  Beta
Occup= 0
   1         0.78872
   2         0.00013
   3        -0.00021
   4        -0.78865
   5        -1.39742
   6        -0.00030
   7         0.00031
   8         1.39742
Sym=   A
Ene=   1.51911
Spin=  Beta
Occup= 0
   1         0.00016
   2        -0.78867
   3         0.78869
   4        -0.00018
   5        -0.00030
   6         1.39742
   7        -1.39742
   8         0.00030
Sym=   A
Ene=   3.58336
Spin=  Beta
Occup= 0
   1         1.10357
   2        -1.10357
   3        -1.10357
   4         1.10357
   5        -1.81520
   6         1.81521
   7         1.81520
   8        -1.81521
