[Molden Format]
made by Quiqbox

[Atoms] (AU)
H    1    1         -1.524631       -0.880234       -0.489817
N    2    7          0.0             0.0             0.209949
H    3    1          0.0             1.760469       -0.489817
H    4    1          1.524631       -0.880234       -0.489817

[GTO]
1 0
S    3   1.0
         3.425250914                   0.1543289673
         0.6239137298                  0.5353281423
         0.168855404                   0.4446345422

2 0
S    3   1.0
        99.10616896                    0.1543289673
        18.05231239                    0.5353281423
         4.885660238                   0.4446345422
S    3   1.0
         3.780455879                  -0.09996722919
         0.8784966449                  0.3995128261
         0.2857143744                  0.7001154689
P    3   1.0
         3.780455879                   0.155916275
         0.8784966449                  0.6076837186
         0.2857143744                  0.3919573931

3 0
S    3   1.0
         3.425250914                   0.1543289673
         0.6239137298                  0.5353281423
         0.168855404                   0.4446345422

4 0
S    3   1.0
         3.425250914                   0.1543289673
         0.6239137298                  0.5353281423
         0.168855404                   0.4446345422

[MO]
Sym=   A
Ene=  -15.302787
Spin=  Alpha
Occup= 1
   1        -0.006812
   2         0.993334
   3         0.032411
   4         0.0
   5         0.0
   6        -0.004996
   7        -0.006812
   8        -0.006812
Sym=   A
Ene=  -1.094621
Spin=  Alpha
Occup= 1
   1        -0.159954
   2         0.219668
   3        -0.733109
   4         4.0e-6
   5        -7.0e-6
   6         0.136428
   7        -0.159956
   8        -0.159962
Sym=   A
Ene=  -0.577766
Spin=  Alpha
Occup= 1
   1        -0.316387
   2         1.0e-6
   3        -1.1e-5
   4         0.557167
   5        -0.204354
   6         1.9e-5
   7        -0.169992
   8         0.486405
Sym=   A
Ene=  -0.577765
Spin=  Alpha
Occup= 1
   1        -0.378958
   2         1.0e-6
   3        -3.0e-6
   4         0.204364
   5         0.557185
   6        -8.0e-6
   7         0.463473
   8        -0.084526
Sym=   A
Ene=  -0.352174
Spin=  Alpha
Occup= 1
   1         0.117114
   2         0.087258
   3        -0.438587
   4        -6.0e-6
   5         1.0e-6
   6        -0.897997
   7         0.117107
   8         0.11714
Sym=   A
Ene=   0.650205
Spin=  Alpha
Occup= 0
   1         0.723781
   2         0.187023
   3        -1.293535
   4        -2.5e-5
   5         8.2e-5
   6         0.557357
   7         0.723687
   8         0.723801
Sym=   A
Ene=   0.742961
Spin=  Alpha
Occup= 0
   1         0.803325
   2         5.0e-6
   3        -3.7e-5
   4         1.054037
   5        -0.134129
   6         4.0e-6
   7         0.127412
   8        -0.930672
Sym=   A
Ene=   0.742965
Spin=  Alpha
Occup= 0
   1        -0.610838
   2         1.4e-5
   3        -0.000106
   4        -0.134121
   5        -1.054029
   6         3.8e-5
   7         1.001194
   8        -0.390182
Sym=   A
Ene=  -15.302768
Spin=  Beta
Occup= 1
   1        -0.006812
   2         0.993335
   3         0.032409
   4        -0.0
   5         0.0
   6        -0.004996
   7        -0.006812
   8        -0.006812
Sym=   A
Ene=  -1.094562
Spin=  Beta
Occup= 1
   1        -0.160022
   2         0.219651
   3        -0.732998
   4        -4.0e-6
   5        -0.0
   6         0.136368
   7        -0.160027
   8        -0.160014
Sym=   A
Ene=  -0.577756
Spin=  Beta
Occup= 1
   1        -0.446169
   2         1.0e-6
   3        -7.0e-6
   4         0.337109
   5         0.488247
   6        -1.0e-6
   7         0.406372
   8         0.039796
Sym=   A
Ene=  -0.577756
Spin=  Beta
Occup= 1
   1         0.211637
   2         3.0e-6
   3        -1.9e-5
   4        -0.488265
   5         0.337115
   6         1.7e-5
   7         0.280575
   8        -0.492188
Sym=   A
Ene=  -0.352136
Spin=  Beta
Occup= 1
   1         0.117209
   2         0.087275
   3        -0.438718
   4         6.0e-6
   5        -7.0e-6
   6        -0.897938
   7         0.11721
   8         0.117182
Sym=   A
Ene=   0.650212
Spin=  Beta
Occup= 0
   1         0.723765
   2         0.187033
   3        -1.293553
   4         2.4e-5
   5         4.4e-5
   6         0.557467
   7         0.723678
   8         0.723746
Sym=   A
Ene=   0.742974
Spin=  Beta
Occup= 0
   1        -0.958038
   2         5.0e-6
   3        -3.8e-5
   4        -1.040557
   5        -0.215365
   6         7.0e-6
   7         0.20454
   8         0.753562
Sym=   A
Ene=   0.742977
Spin=  Beta
Occup= 0
   1        -0.316938
   2         9.0e-6
   3        -6.8e-5
   4         0.215355
   5        -1.040562
   6         3.9e-5
   7         0.98823
   8        -0.671187
