[Molden Format]
made by Quiqbox

[Atoms] (AU)
F    1    9         -0.866439        0.0             0.0
H    2    1          0.866439        0.0             0.0

[GTO]
1 0
S    2   1.0
        63.73520195                    0.4301284983
        11.34483382                    0.6789135305
S    2   1.0
         2.498548256                   0.0494717692
         0.6336978147                  0.9637824081
P    2   1.0
         2.498548256                   0.5115407076
         0.6336978147                  0.6128198961

2 0
S    2   1.0
         1.309756377                   0.4301284983
         0.2331359749                  0.6789135305

[MO]
Sym=   A
Ene=  -25.04689
Spin=  Alpha
Occup= 2
   1        -0.98733
   2        -0.04757
   3        -0.005254
   4         0.0
   5         0.0
   6         0.012559
Sym=   A
Ene=  -1.416807
Spin=  Alpha
Occup= 2
   1        -0.286686
   2         0.923799
   3         0.084741
   4         0.0
   5         0.0
   6         0.188376
Sym=   A
Ene=  -0.53814
Spin=  Alpha
Occup= 2
   1         0.108535
   2        -0.466904
   3         0.675506
   4         0.0
   5         0.0
   6         0.553486
Sym=   A
Ene=  -0.398618
Spin=  Alpha
Occup= 2
   1         0.0
   2         0.0
   3         0.0
   4         1.0
   5         0.0
   6         0.0
Sym=   A
Ene=  -0.398618
Spin=  Alpha
Occup= 2
   1         0.0
   2         0.0
   3         0.0
   4         0.0
   5         1.0
   6         0.0
Sym=   A
Ene=   0.692576
Spin=  Alpha
Occup= 0
   1         0.108725
   2        -0.555749
   3        -0.841725
   4         0.0
   5         0.0
   6         1.059281
