[Molden Format]
made by Quiqbox

[Atoms] (AU)
H    1    1         -1.525       -0.88        -0.49
N    2    7          0.0          0.0          0.21
H    3    1          0.0          1.76        -0.49
H    4    1          1.525       -0.88        -0.49

[GTO]
1 0
S    3   1.0
         3.425250914                   0.1543289673
         0.6239137298                  0.5353281423
         0.168855404                   0.4446345422

2 0
S    3   1.0
        99.10616896                    0.1543289673
        18.05231239                    0.5353281423
         4.885660238                   0.4446345422
S    3   1.0
         3.780455879                  -0.09996722919
         0.8784966449                  0.3995128261
         0.2857143744                  0.7001154689
P    3   1.0
         3.780455879                   0.155916275
         0.8784966449                  0.6076837186
         0.2857143744                  0.3919573931

3 0
S    3   1.0
         3.425250914                   0.1543289673
         0.6239137298                  0.5353281423
         0.168855404                   0.4446345422

4 0
S    3   1.0
         3.425250914                   0.1543289673
         0.6239137298                  0.5353281423
         0.168855404                   0.4446345422

[MO]
Sym=   A
Ene=  -15.303
Spin=  Alpha
Occup= 2
   1        -0.007
   2         0.993
   3         0.032
   4        -0.0
   5         0.0
   6        -0.005
   7        -0.007
   8        -0.007
Sym=   A
Ene=  -1.095
Spin=  Alpha
Occup= 2
   1        -0.16
   2         0.22
   3        -0.733
   4         0.0
   5        -0.0
   6         0.136
   7        -0.16
   8        -0.16
Sym=   A
Ene=  -0.578
Spin=  Alpha
Occup= 2
   1         0.428
   2         0.0
   3        -0.0
   4        -0.593
   5        -0.0
   6        -0.0
   7        -0.0
   8        -0.428
Sym=   A
Ene=  -0.578
Spin=  Alpha
Occup= 2
   1        -0.247
   2         0.0
   3        -0.0
   4        -0.0
   5         0.593
   6        -0.0
   7         0.494
   8        -0.247
Sym=   A
Ene=  -0.352
Spin=  Alpha
Occup= 2
   1         0.117
   2         0.087
   3        -0.439
   4        -0.0
   5         0.0
   6        -0.898
   7         0.117
   8         0.117
Sym=   A
Ene=   0.65
Spin=  Alpha
Occup= 0
   1         0.724
   2         0.187
   3        -1.294
   4         0.0
   5         0.0
   6         0.557
   7         0.724
   8         0.724
Sym=   A
Ene=   0.743
Spin=  Alpha
Occup= 0
   1        -0.874
   2         0.0
   3        -0.0
   4        -1.063
   5         0.0
   6         0.0
   7        -0.0
   8         0.874
Sym=   A
Ene=   0.743
Spin=  Alpha
Occup= 0
   1        -0.505
   2         0.0
   3        -0.0
   4        -0.0
   5        -1.063
   6         0.0
   7         1.009
   8        -0.504
