[Molden Format]
made by Quiqbox

[Atoms] (AU)
F    1    9         -0.86644         0.00000         0.00000
H    2    1          0.86644         0.00000         0.00000

[GTO]
1 0
S    2   1.0
        63.73520         0.43013
        11.34483         0.67891
S    2   1.0
         2.49855         0.04947
         0.63370         0.96378
P    2   1.0
         2.49855         0.51154
         0.63370         0.61282

2 0
S    2   1.0
         1.30976         0.43013
         0.23314         0.67891

[MO]
Sym=   A
Ene=  -25.03940
Spin=  Alpha
Occup= 1
   1        -0.98732
   2        -0.04759
   3        -0.00525
   4         0.00000
   5         0.00000
   6         0.01256
Sym=   A
Ene=  -1.41596
Spin=  Alpha
Occup= 1
   1        -0.28769
   2         0.92839
   3         0.08499
   4         0.00000
   5         0.00000
   6         0.18121
Sym=   A
Ene=  -0.53960
Spin=  Alpha
Occup= 1
   1         0.10491
   2        -0.45094
   3         0.69309
   4         0.00000
   5         0.00000
   6         0.53246
Sym=   A
Ene=  -0.39516
Spin=  Alpha
Occup= 1
   1         0.00000
   2         0.00000
   3         0.00000
   4         1.00000
   5         0.00000
   6         0.00000
Sym=   A
Ene=  -0.39516
Spin=  Alpha
Occup= 1
   1         0.00000
   2         0.00000
   3         0.00000
   4         0.00000
   5         1.00000
   6         0.00000
Sym=   A
Ene=   0.69165
Spin=  Alpha
Occup= 0
   1         0.10970
   2        -0.56125
   3        -0.82728
   4         0.00000
   5         0.00000
   6         1.07124
Sym=   A
Ene=  -25.03892
Spin=  Beta
Occup= 1
   1        -0.98733
   2        -0.04756
   3        -0.00525
   4         0.00000
   5         0.00000
   6         0.01256
Sym=   A
Ene=  -1.41180
Spin=  Beta
Occup= 1
   1        -0.28619
   2         0.92152
   3         0.08462
   4         0.00000
   5         0.00000
   6         0.19191
Sym=   A
Ene=  -0.53354
Spin=  Beta
Occup= 1
   1         0.11036
   2        -0.47492
   3         0.66648
   4         0.00000
   5         0.00000
   6         0.56405
Sym=   A
Ene=  -0.39373
Spin=  Beta
Occup= 1
   1         0.00000
   2         0.00000
   3         0.00000
   4         1.00000
   5         0.00000
   6         0.00000
Sym=   A
Ene=  -0.39373
Spin=  Beta
Occup= 1
   1         0.00000
   2         0.00000
   3         0.00000
   4         0.00000
   5         1.00000
   6         0.00000
Sym=   A
Ene=   0.69447
Spin=  Beta
Occup= 0
   1         0.10817
   2        -0.55274
   3        -0.84890
   4         0.00000
   5         0.00000
   6         1.05306
