[Molden Format]
made by Quiqbox

[Atoms] (AU)
X    1    X         -1.525       -0.88        -0.49
X    2    X          0.0          0.0          0.21
X    3    X          0.0          1.76        -0.49
X    4    X          1.525       -0.88        -0.49
H    5    1          0.7          0.0          0.0
H    6    1         -0.7          0.0          0.0

[GTO]
1 0
S    3   1.0
         3.425250914                   0.1543289673
         0.6239137298                  0.5353281423
         0.168855404                   0.4446345422

2 0
S    3   1.0
         3.425250914                   0.1543289673
         0.6239137298                  0.5353281423
         0.168855404                   0.4446345422

3 0
S    3   1.0
         3.425250914                   0.1543289673
         0.6239137298                  0.5353281423
         0.168855404                   0.4446345422

4 0
S    3   1.0
         3.425250914                   0.1543289673
         0.6239137298                  0.5353281423
         0.168855404                   0.4446345422

[MO]
Sym=   A
Ene=  -0.473
Spin=  Alpha
Occup= 1
   1         0.154
   2         0.775
   3         0.105
   4         0.154
Sym=   A
Ene=   0.775
Spin=  Alpha
Occup= 0
   1        -0.8
   2         0.0
   3         0.0
   4         0.799
Sym=   A
Ene=   0.855
Spin=  Alpha
Occup= 0
   1        -0.478
   2         0.067
   3         0.904
   4        -0.479
Sym=   A
Ene=   1.245
Spin=  Alpha
Occup= 0
   1        -0.66
   2         1.202
   3        -0.706
   4        -0.661
Sym=   A
Ene=  -0.473
Spin=  Beta
Occup= 1
   1         0.154
   2         0.775
   3         0.105
   4         0.154
Sym=   A
Ene=   0.775
Spin=  Beta
Occup= 0
   1         0.799
   2         0.0
   3         0.0
   4        -0.8
Sym=   A
Ene=   0.855
Spin=  Beta
Occup= 0
   1        -0.479
   2         0.067
   3         0.904
   4        -0.478
Sym=   A
Ene=   1.245
Spin=  Beta
Occup= 0
   1        -0.661
   2         1.202
   3        -0.706
   4        -0.66
