[Molden Format]
made by Quiqbox

[Atoms] (AU)
X    1    X         -0.60000        -0.60000        -0.60000
X    2    X         -0.60000        -0.60000         0.60000
X    3    X         -0.60000         0.60000        -0.60000
X    4    X         -0.60000         0.60000         0.60000
X    5    X          0.60000        -0.60000        -0.60000
X    6    X          0.60000        -0.60000         0.60000
X    7    X          0.60000         0.60000        -0.60000
X    8    X          0.60000         0.60000         0.60000
H    9    1          0.86644         0.00000         0.00000
F    10   9         -0.86644         0.00000         0.00000

[GTO]
1 0
S    3   1.0
         3.42525         0.15433
         0.62391         0.53533
         0.16886         0.44463

2 0
S    3   1.0
         3.42525         0.15433
         0.62391         0.53533
         0.16886         0.44463

3 0
S    3   1.0
         3.42525         0.15433
         0.62391         0.53533
         0.16886         0.44463

4 0
S    3   1.0
         3.42525         0.15433
         0.62391         0.53533
         0.16886         0.44463

5 0
S    3   1.0
         3.42525         0.15433
         0.62391         0.53533
         0.16886         0.44463

6 0
S    3   1.0
         3.42525         0.15433
         0.62391         0.53533
         0.16886         0.44463

7 0
S    3   1.0
         3.42525         0.15433
         0.62391         0.53533
         0.16886         0.44463

8 0
S    3   1.0
         3.42525         0.15433
         0.62391         0.53533
         0.16886         0.44463

[MO]
Sym=   A
Ene=  -3.56838
Spin=  Alpha
Occup= 1
   1         0.38586
   2         0.38586
   3         0.38586
   4         0.38586
   5        -0.15274
   6        -0.15274
   7        -0.15274
   8        -0.15274
Sym=   A
Ene=  -1.10497
Spin=  Alpha
Occup= 1
   1         1.16552
   2         0.00330
   3        -0.00330
   4        -1.16552
   5        -0.16642
   6        -0.00047
   7         0.00047
   8         0.16642
Sym=   A
Ene=  -1.10497
Spin=  Alpha
Occup= 1
   1         0.00330
   2        -1.16552
   3         1.16552
   4        -0.00330
   5        -0.00047
   6         0.16642
   7        -0.16642
   8         0.00047
Sym=   A
Ene=  -0.36624
Spin=  Alpha
Occup= 1
   1         0.21399
   2         0.21399
   3         0.21399
   4         0.21399
   5        -0.41394
   6        -0.41394
   7        -0.41394
   8        -0.41394
Sym=   A
Ene=   0.61544
Spin=  Alpha
Occup= 1
   1         1.45618
   2        -1.45618
   3        -1.45618
   4         1.45618
   5         0.20820
   6        -0.20820
   7        -0.20820
   8         0.20820
Sym=   A
Ene=   1.51913
Spin=  Alpha
Occup= 0
   1         0.00630
   2        -0.78866
   3         0.78866
   4        -0.00630
   5        -0.01116
   6         1.39738
   7        -1.39738
   8         0.01116
Sym=   A
Ene=   1.51913
Spin=  Alpha
Occup= 0
   1         0.78866
   2         0.00630
   3        -0.00630
   4        -0.78866
   5        -1.39738
   6        -0.01116
   7         0.01116
   8         1.39738
Sym=   A
Ene=   3.58338
Spin=  Alpha
Occup= 0
   1         1.10357
   2        -1.10357
   3        -1.10357
   4         1.10357
   5        -1.81520
   6         1.81520
   7         1.81521
   8        -1.81521
Sym=   A
Ene=  -3.56838
Spin=  Beta
Occup= 1
   1         0.38586
   2         0.38586
   3         0.38586
   4         0.38586
   5        -0.15274
   6        -0.15274
   7        -0.15274
   8        -0.15274
Sym=   A
Ene=  -1.10497
Spin=  Beta
Occup= 1
   1         0.15423
   2        -1.15528
   3         1.15528
   4        -0.15423
   5        -0.02202
   6         0.16496
   7        -0.16496
   8         0.02202
Sym=   A
Ene=  -1.10497
Spin=  Beta
Occup= 1
   1         1.15528
   2         0.15423
   3        -0.15423
   4        -1.15528
   5        -0.16496
   6        -0.02202
   7         0.02202
   8         0.16496
Sym=   A
Ene=  -0.36624
Spin=  Beta
Occup= 1
   1         0.21399
   2         0.21399
   3         0.21399
   4         0.21399
   5        -0.41394
   6        -0.41394
   7        -0.41394
   8        -0.41394
Sym=   A
Ene=   0.61544
Spin=  Beta
Occup= 1
   1         1.45618
   2        -1.45618
   3        -1.45618
   4         1.45618
   5         0.20820
   6        -0.20820
   7        -0.20820
   8         0.20820
Sym=   A
Ene=   1.51913
Spin=  Beta
Occup= 0
   1         0.00075
   2         0.78869
   3        -0.78869
   4        -0.00075
   5        -0.00133
   6        -1.39742
   7         1.39742
   8         0.00133
Sym=   A
Ene=   1.51913
Spin=  Beta
Occup= 0
   1         0.78869
   2        -0.00075
   3         0.00075
   4        -0.78869
   5        -1.39742
   6         0.00133
   7        -0.00133
   8         1.39742
Sym=   A
Ene=   3.58338
Spin=  Beta
Occup= 0
   1         1.10357
   2        -1.10357
   3        -1.10357
   4         1.10357
   5        -1.81521
   6         1.81521
   7         1.81520
   8        -1.81520
