[Molden Format]
made by Quiqbox

[Atoms] (AU)
H    1    1         -0.7          0.0          0.0
H    2    1          0.7          0.0          0.0

[GTO]
1 0
S    3   1.0
         3.425250914                   0.1543289673
         0.6239137298                  0.5353281423
         0.168855404                   0.4446345422

2 0
S    3   1.0
         3.425250914                   0.1543289673
         0.6239137298                  0.5353281423
         0.168855404                   0.4446345422

[MO]
Sym=   A
Ene=  -0.578
Spin=  Alpha
Occup= 1
   1         0.549
   2         0.549
Sym=   A
Ene=   0.67
Spin=  Alpha
Occup= 0
   1        -1.211
   2         1.211
Sym=   A
Ene=  -0.578
Spin=  Beta
Occup= 1
   1         0.549
   2         0.549
Sym=   A
Ene=   0.67
Spin=  Beta
Occup= 0
   1        -1.211
   2         1.211
