[Molden Format]
made by Quiqbox

[Atoms] (AU)
X    1    X         -0.6            -0.6            -0.6
X    2    X         -0.6            -0.6             0.6
X    3    X         -0.6             0.6            -0.6
X    4    X         -0.6             0.6             0.6
X    5    X          0.6            -0.6            -0.6
X    6    X          0.6            -0.6             0.6
X    7    X          0.6             0.6            -0.6
X    8    X          0.6             0.6             0.6
H    9    1          0.866439        0.0             0.0
F    10   9         -0.866439        0.0             0.0

[GTO]
1 0
S    2   1.0
         1.309756377                   0.4301284983
         0.2331359749                  0.6789135305

2 0
S    2   1.0
         1.309756377                   0.4301284983
         0.2331359749                  0.6789135305

3 0
S    2   1.0
         1.309756377                   0.4301284983
         0.2331359749                  0.6789135305

4 0
S    2   1.0
         1.309756377                   0.4301284983
         0.2331359749                  0.6789135305

5 0
S    2   1.0
         1.309756377                   0.4301284983
         0.2331359749                  0.6789135305

6 0
S    2   1.0
         1.309756377                   0.4301284983
         0.2331359749                  0.6789135305

7 0
S    2   1.0
         1.309756377                   0.4301284983
         0.2331359749                  0.6789135305

8 0
S    2   1.0
         1.309756377                   0.4301284983
         0.2331359749                  0.6789135305

[MO]
Sym=   A
Ene=  -3.661541
Spin=  Alpha
Occup= 2
   1         0.390011
   2         0.390011
   3         0.390011
   4         0.390011
   5        -0.160703
   6        -0.160703
   7        -0.160703
   8        -0.160703
Sym=   A
Ene=  -1.198875
Spin=  Alpha
Occup= 2
   1         1.183527
   2        -0.000708
   3         0.000708
   4        -1.183527
   5        -0.20161
   6         0.000121
   7        -0.000121
   8         0.201609
Sym=   A
Ene=  -1.198875
Spin=  Alpha
Occup= 2
   1         0.000708
   2         1.183527
   3        -1.183527
   4        -0.000708
   5        -0.000121
   6        -0.201609
   7         0.201609
   8         0.000121
Sym=   A
Ene=  -0.420811
Spin=  Alpha
Occup= 2
   1         0.206599
   2         0.206599
   3         0.206599
   4         0.206599
   5        -0.411056
   6        -0.411055
   7        -0.411055
   8        -0.411054
Sym=   A
Ene=   0.585302
Spin=  Alpha
Occup= 2
   1         1.489309
   2        -1.489305
   3        -1.489304
   4         1.489299
   5         0.142275
   6        -0.142283
   7        -0.142285
   8         0.142293
Sym=   A
Ene=   1.385286
Spin=  Alpha
Occup= 0
   1         0.74969
   2         0.000532
   3        -0.000512
   4        -0.749711
   5        -1.386414
   6        -0.000964
   7         0.000967
   8         1.386412
Sym=   A
Ene=   1.385286
Spin=  Alpha
Occup= 0
   1         0.000521
   2        -0.749699
   3         0.749701
   4        -0.000523
   5        -0.000966
   6         1.386413
   7        -1.386413
   8         0.000965
Sym=   A
Ene=   3.116624
Spin=  Alpha
Occup= 0
   1         1.064153
   2        -1.064153
   3        -1.064153
   4         1.064154
   5        -1.824885
   6         1.824885
   7         1.824885
   8        -1.824885
