[Molden Format]
made by Quiqbox

[Atoms] (AU)
X    1    X         -0.6         -0.6         -0.6
X    2    X         -0.6         -0.6          0.6
X    3    X         -0.6          0.6         -0.6
X    4    X         -0.6          0.6          0.6
X    5    X          0.6         -0.6         -0.6
X    6    X          0.6         -0.6          0.6
X    7    X          0.6          0.6         -0.6
X    8    X          0.6          0.6          0.6
H    9    1          0.7          0.0          0.0
H    10   1         -0.7          0.0          0.0

[GTO]
1 0
S    2   1.0
         1.309756377                   0.4301284983
         0.2331359749                  0.6789135305

2 0
S    2   1.0
         1.309756377                   0.4301284983
         0.2331359749                  0.6789135305

3 0
S    2   1.0
         1.309756377                   0.4301284983
         0.2331359749                  0.6789135305

4 0
S    2   1.0
         1.309756377                   0.4301284983
         0.2331359749                  0.6789135305

5 0
S    2   1.0
         1.309756377                   0.4301284983
         0.2331359749                  0.6789135305

6 0
S    2   1.0
         1.309756377                   0.4301284983
         0.2331359749                  0.6789135305

7 0
S    2   1.0
         1.309756377                   0.4301284983
         0.2331359749                  0.6789135305

8 0
S    2   1.0
         1.309756377                   0.4301284983
         0.2331359749                  0.6789135305

[MO]
Sym=   A
Ene=  -0.542
Spin=  Alpha
Occup= 1
   1         0.154
   2         0.154
   3         0.154
   4         0.154
   5         0.154
   6         0.154
   7         0.154
   8         0.154
Sym=   A
Ene=   0.579
Spin=  Alpha
Occup= 0
   1         0.414
   2         0.414
   3         0.414
   4         0.414
   5        -0.414
   6        -0.414
   7        -0.414
   8        -0.414
Sym=   A
Ene=   0.792
Spin=  Alpha
Occup= 0
   1         0.582
   2         0.061
   3        -0.061
   4        -0.582
   5         0.582
   6         0.061
   7        -0.061
   8        -0.582
Sym=   A
Ene=   0.792
Spin=  Alpha
Occup= 0
   1         0.061
   2        -0.582
   3         0.582
   4        -0.061
   5         0.061
   6        -0.582
   7         0.582
   8        -0.061
Sym=   A
Ene=   2.073
Spin=  Alpha
Occup= 0
   1         1.027
   2         0.752
   3        -0.752
   4        -1.027
   5        -1.027
   6        -0.752
   7         0.752
   8         1.027
Sym=   A
Ene=   2.073
Spin=  Alpha
Occup= 0
   1         0.752
   2        -1.027
   3         1.027
   4        -0.752
   5        -0.752
   6         1.027
   7        -1.027
   8         0.752
Sym=   A
Ene=   2.181
Spin=  Alpha
Occup= 0
   1         0.9
   2        -0.9
   3        -0.9
   4         0.9
   5         0.9
   6        -0.9
   7        -0.9
   8         0.9
Sym=   A
Ene=   3.695
Spin=  Alpha
Occup= 0
   1         1.594
   2        -1.594
   3        -1.594
   4         1.594
   5        -1.594
   6         1.594
   7         1.594
   8        -1.594
Sym=   A
Ene=  -0.542
Spin=  Beta
Occup= 1
   1         0.154
   2         0.154
   3         0.154
   4         0.154
   5         0.154
   6         0.154
   7         0.154
   8         0.154
Sym=   A
Ene=   0.579
Spin=  Beta
Occup= 0
   1         0.414
   2         0.414
   3         0.414
   4         0.414
   5        -0.414
   6        -0.414
   7        -0.414
   8        -0.414
Sym=   A
Ene=   0.792
Spin=  Beta
Occup= 0
   1         0.585
   2        -0.023
   3         0.023
   4        -0.585
   5         0.585
   6        -0.023
   7         0.023
   8        -0.585
Sym=   A
Ene=   0.792
Spin=  Beta
Occup= 0
   1         0.023
   2         0.585
   3        -0.585
   4        -0.023
   5         0.023
   6         0.585
   7        -0.585
   8        -0.023
Sym=   A
Ene=   2.073
Spin=  Beta
Occup= 0
   1         0.861
   2         0.938
   3        -0.938
   4        -0.861
   5        -0.861
   6        -0.938
   7         0.938
   8         0.861
Sym=   A
Ene=   2.073
Spin=  Beta
Occup= 0
   1         0.938
   2        -0.861
   3         0.861
   4        -0.938
   5        -0.938
   6         0.861
   7        -0.861
   8         0.938
Sym=   A
Ene=   2.181
Spin=  Beta
Occup= 0
   1         0.9
   2        -0.9
   3        -0.9
   4         0.9
   5         0.9
   6        -0.9
   7        -0.9
   8         0.9
Sym=   A
Ene=   3.695
Spin=  Beta
Occup= 0
   1         1.594
   2        -1.594
   3        -1.594
   4         1.594
   5        -1.594
   6         1.594
   7         1.594
   8        -1.594
