[Molden Format]
made by Quiqbox

[Atoms] (AU)
H    1    1         -1.525       -0.88        -0.49
N    2    7          0.0          0.0          0.21
H    3    1          0.0          1.76        -0.49
H    4    1          1.525       -0.88        -0.49

[GTO]
1 0
S    3   1.0
         3.425250914                   0.1543289673
         0.6239137298                  0.5353281423
         0.168855404                   0.4446345422

2 0
S    3   1.0
        99.10616896                    0.1543289673
        18.05231239                    0.5353281423
         4.885660238                   0.4446345422
S    3   1.0
         3.780455879                  -0.09996722919
         0.8784966449                  0.3995128261
         0.2857143744                  0.7001154689
P    3   1.0
         3.780455879                   0.155916275
         0.8784966449                  0.6076837186
         0.2857143744                  0.3919573931

3 0
S    3   1.0
         3.425250914                   0.1543289673
         0.6239137298                  0.5353281423
         0.168855404                   0.4446345422

4 0
S    3   1.0
         3.425250914                   0.1543289673
         0.6239137298                  0.5353281423
         0.168855404                   0.4446345422

[MO]
Sym=   A
Ene=  -15.303
Spin=  Alpha
Occup= 1
   1        -0.007
   2         0.993
   3         0.032
   4         0.0
   5         0.0
   6        -0.005
   7        -0.007
   8        -0.007
Sym=   A
Ene=  -1.095
Spin=  Alpha
Occup= 1
   1        -0.16
   2         0.22
   3        -0.733
   4         0.0
   5        -0.0
   6         0.136
   7        -0.16
   8        -0.16
Sym=   A
Ene=  -0.578
Spin=  Alpha
Occup= 1
   1        -0.316
   2         0.0
   3        -0.0
   4         0.557
   5        -0.204
   6         0.0
   7        -0.17
   8         0.486
Sym=   A
Ene=  -0.578
Spin=  Alpha
Occup= 1
   1        -0.379
   2         0.0
   3        -0.0
   4         0.204
   5         0.557
   6        -0.0
   7         0.463
   8        -0.085
Sym=   A
Ene=  -0.352
Spin=  Alpha
Occup= 1
   1         0.117
   2         0.087
   3        -0.439
   4        -0.0
   5         0.0
   6        -0.898
   7         0.117
   8         0.117
Sym=   A
Ene=   0.65
Spin=  Alpha
Occup= 0
   1         0.724
   2         0.187
   3        -1.294
   4        -0.0
   5         0.0
   6         0.557
   7         0.724
   8         0.724
Sym=   A
Ene=   0.743
Spin=  Alpha
Occup= 0
   1         0.803
   2         0.0
   3        -0.0
   4         1.054
   5        -0.134
   6         0.0
   7         0.127
   8        -0.931
Sym=   A
Ene=   0.743
Spin=  Alpha
Occup= 0
   1        -0.611
   2         0.0
   3        -0.0
   4        -0.134
   5        -1.054
   6         0.0
   7         1.001
   8        -0.39
Sym=   A
Ene=  -15.303
Spin=  Beta
Occup= 1
   1        -0.007
   2         0.993
   3         0.032
   4        -0.0
   5         0.0
   6        -0.005
   7        -0.007
   8        -0.007
Sym=   A
Ene=  -1.095
Spin=  Beta
Occup= 1
   1        -0.16
   2         0.22
   3        -0.733
   4        -0.0
   5        -0.0
   6         0.136
   7        -0.16
   8        -0.16
Sym=   A
Ene=  -0.578
Spin=  Beta
Occup= 1
   1        -0.446
   2         0.0
   3        -0.0
   4         0.337
   5         0.488
   6        -0.0
   7         0.406
   8         0.04
Sym=   A
Ene=  -0.578
Spin=  Beta
Occup= 1
   1         0.212
   2         0.0
   3        -0.0
   4        -0.488
   5         0.337
   6         0.0
   7         0.281
   8        -0.492
Sym=   A
Ene=  -0.352
Spin=  Beta
Occup= 1
   1         0.117
   2         0.087
   3        -0.439
   4         0.0
   5        -0.0
   6        -0.898
   7         0.117
   8         0.117
Sym=   A
Ene=   0.65
Spin=  Beta
Occup= 0
   1         0.724
   2         0.187
   3        -1.294
   4         0.0
   5         0.0
   6         0.557
   7         0.724
   8         0.724
Sym=   A
Ene=   0.743
Spin=  Beta
Occup= 0
   1        -0.958
   2         0.0
   3        -0.0
   4        -1.041
   5        -0.215
   6         0.0
   7         0.205
   8         0.754
Sym=   A
Ene=   0.743
Spin=  Beta
Occup= 0
   1        -0.317
   2         0.0
   3        -0.0
   4         0.215
   5        -1.041
   6         0.0
   7         0.988
   8        -0.671
