[Molden Format]
made by Quiqbox

[Atoms] (AU)
H    1    1         -1.52463       -0.88023       -0.48982
N    2    7          0.00000        0.00000        0.20995
H    3    1          0.00000        1.76047       -0.48982
H    4    1          1.52463       -0.88023       -0.48982

[GTO]
1 0
S    3   1.0
         3.425250914                   0.1543289673
         0.6239137298                  0.5353281423
         0.168855404                   0.4446345422

2 0
S    3   1.0
        99.10616896                    0.1543289673
        18.05231239                    0.5353281423
         4.885660238                   0.4446345422
S    3   1.0
         3.780455879                  -0.09996722919
         0.8784966449                  0.3995128261
         0.2857143744                  0.7001154689
P    3   1.0
         3.780455879                   0.155916275
         0.8784966449                  0.6076837186
         0.2857143744                  0.3919573931

3 0
S    3   1.0
         3.425250914                   0.1543289673
         0.6239137298                  0.5353281423
         0.168855404                   0.4446345422

4 0
S    3   1.0
         3.425250914                   0.1543289673
         0.6239137298                  0.5353281423
         0.168855404                   0.4446345422

[MO]
Sym=   A
Ene=  -15.30279
Spin=  Alpha
Occup= 2
   1        -0.00681
   2         0.99333
   3         0.03241
   4        -0.00000
   5         0.00000
   6        -0.00500
   7        -0.00681
   8        -0.00681
Sym=   A
Ene=  -1.09461
Spin=  Alpha
Occup= 2
   1        -0.15998
   2         0.21966
   3        -0.73307
   4         0.00000
   5        -0.00000
   6         0.13640
   7        -0.15998
   8        -0.15998
Sym=   A
Ene=  -0.57777
Spin=  Alpha
Occup= 2
   1         0.42760
   2         0.00000
   3        -0.00000
   4        -0.59341
   5        -0.00002
   6        -0.00000
   7        -0.00002
   8        -0.42758
Sym=   A
Ene=  -0.57777
Spin=  Alpha
Occup= 2
   1        -0.24685
   2         0.00000
   3        -0.00001
   4        -0.00002
   5         0.59340
   6        -0.00001
   7         0.49374
   8        -0.24689
Sym=   A
Ene=  -0.35214
Spin=  Alpha
Occup= 2
   1         0.11722
   2         0.08728
   3        -0.43874
   4        -0.00000
   5         0.00000
   6        -0.89793
   7         0.11720
   8         0.11722
Sym=   A
Ene=   0.65020
Spin=  Alpha
Occup= 0
   1         0.72376
   2         0.18702
   3        -1.29350
   4         0.00000
   5         0.00005
   6         0.55748
   7         0.72369
   8         0.72376
Sym=   A
Ene=   0.74295
Spin=  Alpha
Occup= 0
   1        -0.87393
   2         0.00000
   3        -0.00000
   4        -1.06257
   5         0.00008
   6         0.00000
   7        -0.00007
   8         0.87400
Sym=   A
Ene=   0.74296
Spin=  Alpha
Occup= 0
   1        -0.50461
   2         0.00001
   3        -0.00008
   4        -0.00008
   5        -1.06257
   6         0.00003
   7         1.00922
   8        -0.50448
