[Molden Format]
made by Quiqbox

[Atoms] (AU)
X    1    X         -1.52463       -0.88023       -0.48982
X    2    X          0.00000        0.00000        0.20995
X    3    X          0.00000        1.76047       -0.48982
X    4    X          1.52463       -0.88023       -0.48982
H    5    1          0.70014        0.00000        0.00000
H    6    1         -0.70014        0.00000        0.00000

[GTO]
1 0
S    3   1.0
         3.425250914                   0.1543289673
         0.6239137298                  0.5353281423
         0.168855404                   0.4446345422

2 0
S    3   1.0
         3.425250914                   0.1543289673
         0.6239137298                  0.5353281423
         0.168855404                   0.4446345422

3 0
S    3   1.0
         3.425250914                   0.1543289673
         0.6239137298                  0.5353281423
         0.168855404                   0.4446345422

4 0
S    3   1.0
         3.425250914                   0.1543289673
         0.6239137298                  0.5353281423
         0.168855404                   0.4446345422

[MO]
Sym=   A
Ene=  -0.47270
Spin=  Alpha
Occup= 2
   1         0.15393
   2         0.77469
   3         0.10537
   4         0.15393
Sym=   A
Ene=   0.77486
Spin=  Alpha
Occup= 0
   1        -0.79945
   2         0.00000
   3         0.00000
   4         0.79945
Sym=   A
Ene=   0.85528
Spin=  Alpha
Occup= 0
   1        -0.47868
   2         0.06720
   3         0.90440
   4        -0.47868
Sym=   A
Ene=   1.24524
Spin=  Alpha
Occup= 0
   1        -0.66048
   2         1.20214
   3        -0.70651
   4        -0.66049
