[Molden Format]
made by Quiqbox

[Atoms] (AU)
X    1    X         -0.6            -0.6            -0.6
X    2    X         -0.6            -0.6             0.6
X    3    X         -0.6             0.6            -0.6
X    4    X         -0.6             0.6             0.6
X    5    X          0.6            -0.6            -0.6
X    6    X          0.6            -0.6             0.6
X    7    X          0.6             0.6            -0.6
X    8    X          0.6             0.6             0.6
H    9    1          0.866439        0.0             0.0
F    10   9         -0.866439        0.0             0.0

[GTO]
1 0
S    2   1.0
         1.309756377                   0.4301284983
         0.2331359749                  0.6789135305

2 0
S    2   1.0
         1.309756377                   0.4301284983
         0.2331359749                  0.6789135305

3 0
S    2   1.0
         1.309756377                   0.4301284983
         0.2331359749                  0.6789135305

4 0
S    2   1.0
         1.309756377                   0.4301284983
         0.2331359749                  0.6789135305

5 0
S    2   1.0
         1.309756377                   0.4301284983
         0.2331359749                  0.6789135305

6 0
S    2   1.0
         1.309756377                   0.4301284983
         0.2331359749                  0.6789135305

7 0
S    2   1.0
         1.309756377                   0.4301284983
         0.2331359749                  0.6789135305

8 0
S    2   1.0
         1.309756377                   0.4301284983
         0.2331359749                  0.6789135305

[MO]
Sym=   A
Ene=  -3.661557
Spin=  Alpha
Occup= 1
   1         0.390012
   2         0.390011
   3         0.390012
   4         0.390011
   5        -0.160704
   6        -0.160703
   7        -0.160703
   8        -0.160703
Sym=   A
Ene=  -1.19889
Spin=  Alpha
Occup= 1
   1         1.183537
   2        -0.000135
   3         0.000131
   4        -1.18353
   5        -0.201625
   6         2.3e-5
   7        -2.2e-5
   8         0.201618
Sym=   A
Ene=  -1.19889
Spin=  Alpha
Occup= 1
   1         0.000134
   2         1.183533
   3        -1.183534
   4        -0.000133
   5        -2.3e-5
   6        -0.20162
   7         0.201622
   8         2.3e-5
Sym=   A
Ene=  -0.420796
Spin=  Alpha
Occup= 1
   1         0.206588
   2         0.206601
   3         0.206596
   4         0.206608
   5        -0.411044
   6        -0.411058
   7        -0.411052
   8        -0.411065
Sym=   A
Ene=   0.58529
Spin=  Alpha
Occup= 1
   1         1.489331
   2        -1.489311
   3        -1.489317
   4         1.489297
   5         0.142235
   6        -0.142272
   7        -0.142262
   8         0.1423
Sym=   A
Ene=   1.385299
Spin=  Alpha
Occup= 0
   1         7.0e-6
   2         0.749697
   3        -0.749685
   4        -2.1e-5
   5        -2.4e-5
   6        -1.386411
   7         1.386411
   8         2.8e-5
Sym=   A
Ene=   1.3853
Spin=  Alpha
Occup= 0
   1         0.749653
   2         2.6e-5
   3         5.4e-5
   4        -0.749728
   5        -1.386411
   6         2.0e-5
   7        -3.1e-5
   8         1.386411
Sym=   A
Ene=   3.116635
Spin=  Alpha
Occup= 0
   1         1.064141
   2        -1.064139
   3        -1.06414
   4         1.064139
   5        -1.824891
   6         1.824885
   7         1.824887
   8        -1.824882
Sym=   A
Ene=  -3.661546
Spin=  Beta
Occup= 1
   1         0.39001
   2         0.390011
   3         0.390011
   4         0.390012
   5        -0.160701
   6        -0.160702
   7        -0.160702
   8        -0.160703
Sym=   A
Ene=  -1.198876
Spin=  Beta
Occup= 1
   1         1.6e-5
   2        -1.183524
   3         1.183522
   4        -1.5e-5
   5        -3.0e-6
   6         0.201603
   7        -0.201601
   8         3.0e-6
Sym=   A
Ene=  -1.198875
Spin=  Beta
Occup= 1
   1         1.183519
   2         1.7e-5
   3        -1.3e-5
   4        -1.183526
   5        -0.201597
   6        -3.0e-6
   7         2.0e-6
   8         0.201605
Sym=   A
Ene=  -0.420808
Spin=  Beta
Occup= 1
   1         0.206609
   2         0.206597
   3         0.206602
   4         0.206589
   5        -0.411066
   6        -0.411052
   7        -0.411058
   8        -0.411046
Sym=   A
Ene=   0.585306
Spin=  Beta
Occup= 1
   1         1.489258
   2        -1.489283
   3        -1.489273
   4         1.489298
   5         0.142368
   6        -0.14232
   7        -0.142339
   8         0.14229
Sym=   A
Ene=   1.385286
Spin=  Beta
Occup= 0
   1         0.749752
   2         4.5e-5
   3        -0.000139
   4        -0.749663
   5        -1.386414
   6        -0.000165
   7         0.000175
   8         1.386415
Sym=   A
Ene=   1.385287
Spin=  Beta
Occup= 0
   1         8.1e-5
   2        -0.749696
   3         0.749718
   4        -0.000104
   5        -0.000169
   6         1.386414
   7        -1.386414
   8         0.000171
Sym=   A
Ene=   3.116621
Spin=  Beta
Occup= 0
   1         1.064189
   2        -1.064191
   3        -1.06419
   4         1.064191
   5        -1.824877
   6         1.824883
   7         1.82488
   8        -1.824886
