[Molden Format]
made by Quiqbox

[Atoms] (AU)
X    1    X         -0.60000       -0.60000       -0.60000
X    2    X         -0.60000       -0.60000        0.60000
X    3    X         -0.60000        0.60000       -0.60000
X    4    X         -0.60000        0.60000        0.60000
X    5    X          0.60000       -0.60000       -0.60000
X    6    X          0.60000       -0.60000        0.60000
X    7    X          0.60000        0.60000       -0.60000
X    8    X          0.60000        0.60000        0.60000
H    9    1          0.70014        0.00000        0.00000
H    10   1         -0.70014        0.00000        0.00000

[GTO]
1 0
S    3   1.0
         3.425250914                   0.1543289673
         0.6239137298                  0.5353281423
         0.168855404                   0.4446345422

2 0
S    3   1.0
         3.425250914                   0.1543289673
         0.6239137298                  0.5353281423
         0.168855404                   0.4446345422

3 0
S    3   1.0
         3.425250914                   0.1543289673
         0.6239137298                  0.5353281423
         0.168855404                   0.4446345422

4 0
S    3   1.0
         3.425250914                   0.1543289673
         0.6239137298                  0.5353281423
         0.168855404                   0.4446345422

5 0
S    3   1.0
         3.425250914                   0.1543289673
         0.6239137298                  0.5353281423
         0.168855404                   0.4446345422

6 0
S    3   1.0
         3.425250914                   0.1543289673
         0.6239137298                  0.5353281423
         0.168855404                   0.4446345422

7 0
S    3   1.0
         3.425250914                   0.1543289673
         0.6239137298                  0.5353281423
         0.168855404                   0.4446345422

8 0
S    3   1.0
         3.425250914                   0.1543289673
         0.6239137298                  0.5353281423
         0.168855404                   0.4446345422

[MO]
Sym=   A
Ene=  -0.53408
Spin=  Alpha
Occup= 1
   1         0.15385
   2         0.15385
   3         0.15385
   4         0.15385
   5         0.15328
   6         0.15328
   7         0.15328
   8         0.15328
Sym=   A
Ene=   0.63846
Spin=  Alpha
Occup= 0
   1         0.41353
   2         0.41353
   3         0.41353
   4         0.41353
   5        -0.41374
   6        -0.41374
   7        -0.41374
   8        -0.41374
Sym=   A
Ene=   0.83376
Spin=  Alpha
Occup= 0
   1         0.00000
   2         0.58515
   3        -0.58515
   4        -0.00000
   5         0.00000
   6         0.58479
   7        -0.58479
   8        -0.00000
Sym=   A
Ene=   0.83376
Spin=  Alpha
Occup= 0
   1         0.58515
   2        -0.00000
   3         0.00000
   4        -0.58515
   5         0.58479
   6        -0.00000
   7         0.00000
   8        -0.58479
Sym=   A
Ene=   2.1859
Spin=  Alpha
Occup= 0
   1         0.00000
   2         1.27988
   3        -1.27988
   4        -0.00000
   5        -0.00000
   6        -1.28004
   7         1.28004
   8         0.00000
Sym=   A
Ene=   2.1859
Spin=  Alpha
Occup= 0
   1         1.27988
   2        -0.00000
   3         0.00000
   4        -1.27988
   5        -1.28004
   6         0.00000
   7        -0.00000
   8         1.28004
Sym=   A
Ene=   2.27233
Spin=  Alpha
Occup= 0
   1         0.90514
   2        -0.90514
   3        -0.90514
   4         0.90514
   5         0.90499
   6        -0.90499
   7        -0.90499
   8         0.90499
Sym=   A
Ene=   4.33165
Spin=  Alpha
Occup= 0
   1         1.58715
   2        -1.58715
   3        -1.58715
   4         1.58715
   5        -1.58723
   6         1.58723
   7         1.58723
   8        -1.58723
Sym=   A
Ene=  -0.53408
Spin=  Beta
Occup= 1
   1         0.15328
   2         0.15328
   3         0.15328
   4         0.15328
   5         0.15385
   6         0.15385
   7         0.15385
   8         0.15385
Sym=   A
Ene=   0.63846
Spin=  Beta
Occup= 0
   1         0.41374
   2         0.41374
   3         0.41374
   4         0.41374
   5        -0.41353
   6        -0.41353
   7        -0.41353
   8        -0.41353
Sym=   A
Ene=   0.83376
Spin=  Beta
Occup= 0
   1         0.14795
   2         0.56577
   3        -0.56577
   4        -0.14795
   5         0.14804
   6         0.56611
   7        -0.56611
   8        -0.14804
Sym=   A
Ene=   0.83376
Spin=  Beta
Occup= 0
   1         0.56577
   2        -0.14795
   3         0.14795
   4        -0.56577
   5         0.56611
   6        -0.14804
   7         0.14804
   8        -0.56611
Sym=   A
Ene=   2.1859
Spin=  Beta
Occup= 0
   1         0.20161
   2         1.26406
   3        -1.26406
   4        -0.20161
   5        -0.20159
   6        -1.26390
   7         1.26390
   8         0.20159
Sym=   A
Ene=   2.1859
Spin=  Beta
Occup= 0
   1         1.26406
   2        -0.20161
   3         0.20161
   4        -1.26406
   5        -1.26390
   6         0.20159
   7        -0.20159
   8         1.26390
Sym=   A
Ene=   2.27233
Spin=  Beta
Occup= 0
   1         0.90499
   2        -0.90499
   3        -0.90499
   4         0.90499
   5         0.90514
   6        -0.90514
   7        -0.90514
   8         0.90514
Sym=   A
Ene=   4.33165
Spin=  Beta
Occup= 0
   1         1.58723
   2        -1.58723
   3        -1.58723
   4         1.58723
   5        -1.58715
   6         1.58715
   7         1.58715
   8        -1.58715
