[Molden Format]
made by Quiqbox

[Atoms] (AU)
X    1    X         -0.60000        -0.60000        -0.60000
X    2    X         -0.60000        -0.60000         0.60000
X    3    X         -0.60000         0.60000        -0.60000
X    4    X         -0.60000         0.60000         0.60000
X    5    X          0.60000        -0.60000        -0.60000
X    6    X          0.60000        -0.60000         0.60000
X    7    X          0.60000         0.60000        -0.60000
X    8    X          0.60000         0.60000         0.60000
N    9    7          0.00000         0.00000         0.20995
H    10   1          0.00000         1.76047        -0.48982
H    11   1          1.52463        -0.88023        -0.48982
H    12   1         -1.52463        -0.88023        -0.48982

[GTO]
1 0
S    2   1.0
         1.30976         0.43013
         0.23314         0.67891

2 0
S    2   1.0
         1.30976         0.43013
         0.23314         0.67891

3 0
S    2   1.0
         1.30976         0.43013
         0.23314         0.67891

4 0
S    2   1.0
         1.30976         0.43013
         0.23314         0.67891

5 0
S    2   1.0
         1.30976         0.43013
         0.23314         0.67891

6 0
S    2   1.0
         1.30976         0.43013
         0.23314         0.67891

7 0
S    2   1.0
         1.30976         0.43013
         0.23314         0.67891

8 0
S    2   1.0
         1.30976         0.43013
         0.23314         0.67891

[MO]
Sym=   A
Ene=  -2.38636
Spin=  Alpha
Occup= 1
   1         0.04882
   2         0.25295
   3         0.05620
   4         0.24458
   5         0.06289
   6         0.24632
   7         0.06409
   8         0.22234
Sym=   A
Ene=  -0.81478
Spin=  Alpha
Occup= 1
   1         0.21657
   2         0.32180
   3         0.26913
   4         0.66620
   5        -0.59470
   6        -0.61819
   7        -0.11896
   8        -0.17642
Sym=   A
Ene=  -0.77954
Spin=  Alpha
Occup= 1
   1         0.41224
   2         0.71324
   3        -0.23081
   4        -0.26956
   5         0.10770
   6         0.26023
   7        -0.44037
   8        -0.58554
Sym=   A
Ene=  -0.63241
Spin=  Alpha
Occup= 1
   1         0.48992
   2        -0.25451
   3         0.46273
   4        -0.31232
   5         0.39483
   6        -0.45209
   7         0.38100
   8        -0.44105
Sym=   A
Ene=   0.62522
Spin=  Alpha
Occup= 1
   1         0.95080
   2         0.49632
   3        -0.05000
   4        -1.42761
   5        -1.41928
   6        -0.06499
   7         0.52793
   8         0.99395
Sym=   A
Ene=   1.22635
Spin=  Alpha
Occup= 0
   1         1.25660
   2        -0.90271
   3        -0.81649
   4         0.48641
   5         0.53966
   6        -0.73766
   7        -0.97853
   8         1.16089
Sym=   A
Ene=   1.24142
Spin=  Alpha
Occup= 0
   1         0.29509
   2        -1.17804
   3         1.28598
   4        -0.20696
   5        -0.51783
   6         1.38747
   7        -1.05200
   8        -0.00818
Sym=   A
Ene=   2.95384
Spin=  Alpha
Occup= 0
   1         1.57437
   2        -1.52250
   3        -1.68587
   4         1.58641
   5        -1.55215
   6         1.52305
   7         1.67564
   8        -1.59826
Sym=   A
Ene=  -2.38678
Spin=  Beta
Occup= 1
   1         0.05967
   2         0.25073
   3         0.06546
   4         0.22054
   5         0.04656
   6         0.25352
   7         0.06068
   8         0.24107
Sym=   A
Ene=  -0.81643
Spin=  Beta
Occup= 1
   1         0.57158
   2         0.68328
   3         0.03607
   4         0.09720
   5        -0.16234
   6        -0.19930
   7        -0.33219
   8        -0.67963
Sym=   A
Ene=  -0.78684
Spin=  Beta
Occup= 1
   1         0.00024
   2        -0.17142
   3         0.47176
   4         0.58628
   5        -0.41620
   6        -0.76952
   7         0.20027
   8         0.14706
Sym=   A
Ene=  -0.62291
Spin=  Beta
Occup= 1
   1         0.42118
   2        -0.40759
   3         0.36634
   4        -0.46337
   5         0.49549
   6        -0.23070
   7         0.44442
   8        -0.35808
Sym=   A
Ene=   0.62957
Spin=  Beta
Occup= 1
   1         1.34666
   2         0.23670
   3        -0.66459
   4        -0.97612
   5        -0.88937
   6        -0.65615
   7         0.20188
   8         1.39599
Sym=   A
Ene=   1.22684
Spin=  Beta
Occup= 0
   1         0.80682
   2        -1.33361
   3        -0.33310
   4         0.94418
   5         0.88114
   6        -0.20779
   7        -1.35208
   8         0.60327
Sym=   A
Ene=   1.23737
Spin=  Beta
Occup= 0
   1         0.32580
   2        -0.79314
   3         1.33982
   4        -0.70312
   5        -0.99955
   6         1.40276
   7        -0.67787
   8         0.09579
Sym=   A
Ene=   2.95294
Spin=  Beta
Occup= 0
   1         1.55877
   2        -1.52288
   3        -1.67270
   4         1.59777
   5        -1.57933
   6         1.52224
   7         1.68167
   8        -1.58628
