[Molden Format]
made by Quiqbox

[Atoms] (AU)
X    1    X         -0.6        -0.6        -0.6
X    2    X         -0.6        -0.6         0.6
X    3    X         -0.6         0.6        -0.6
X    4    X         -0.6         0.6         0.6
X    5    X          0.6        -0.6        -0.6
X    6    X          0.6        -0.6         0.6
X    7    X          0.6         0.6        -0.6
X    8    X          0.6         0.6         0.6
N    9    7          0.0         0.0         0.21
H    10   1          0.0         1.76       -0.49
H    11   1          1.52       -0.88       -0.49
H    12   1         -1.52       -0.88       -0.49

[GTO]
1 0
S    2   1.0
         1.309756377                   0.4301284983
         0.2331359749                  0.6789135305

2 0
S    2   1.0
         1.309756377                   0.4301284983
         0.2331359749                  0.6789135305

3 0
S    2   1.0
         1.309756377                   0.4301284983
         0.2331359749                  0.6789135305

4 0
S    2   1.0
         1.309756377                   0.4301284983
         0.2331359749                  0.6789135305

5 0
S    2   1.0
         1.309756377                   0.4301284983
         0.2331359749                  0.6789135305

6 0
S    2   1.0
         1.309756377                   0.4301284983
         0.2331359749                  0.6789135305

7 0
S    2   1.0
         1.309756377                   0.4301284983
         0.2331359749                  0.6789135305

8 0
S    2   1.0
         1.309756377                   0.4301284983
         0.2331359749                  0.6789135305

[MO]
Sym=   A
Ene=  -2.39
Spin=  Alpha
Occup= 1
   1         0.04
   2         0.25
   3         0.05
   4         0.25
   5         0.07
   6         0.25
   7         0.07
   8         0.22
Sym=   A
Ene=  -0.82
Spin=  Alpha
Occup= 1
   1         0.14
   2         0.23
   3         0.27
   4         0.72
   5        -0.62
   6        -0.63
   7        -0.07
   8        -0.08
Sym=   A
Ene=  -0.78
Spin=  Alpha
Occup= 1
   1         0.39
   2         0.78
   3        -0.21
   4        -0.17
   5         0.01
   6         0.19
   7        -0.48
   8        -0.57
Sym=   A
Ene=  -0.62
Spin=  Alpha
Occup= 1
   1         0.51
   2        -0.18
   3         0.47
   4        -0.3
   5         0.38
   6        -0.48
   7         0.35
   8        -0.48
Sym=   A
Ene=   0.62
Spin=  Alpha
Occup= 1
   1         0.75
   2         0.66
   3         0.04
   4        -1.48
   5        -1.47
   6         0.0
   7         0.69
   8         0.82
Sym=   A
Ene=   1.24
Spin=  Alpha
Occup= 0
   1         1.13
   2        -0.28
   3        -1.26
   4         0.35
   5         0.53
   6        -1.24
   7        -0.4
   8         1.18
Sym=   A
Ene=   1.24
Spin=  Alpha
Occup= 0
   1         0.85
   2        -1.39
   3         0.85
   4        -0.12
   5        -0.38
   6         0.97
   7        -1.31
   8         0.54
Sym=   A
Ene=   2.95
Spin=  Alpha
Occup= 0
   1         1.58
   2        -1.52
   3        -1.69
   4         1.58
   5        -1.55
   6         1.52
   7         1.67
   8        -1.6
Sym=   A
Ene=  -2.39
Spin=  Beta
Occup= 1
   1         0.07
   2         0.25
   3         0.07
   4         0.22
   5         0.04
   6         0.25
   7         0.05
   8         0.25
Sym=   A
Ene=  -0.82
Spin=  Beta
Occup= 1
   1         0.62
   2         0.63
   3         0.07
   4         0.08
   5        -0.14
   6        -0.23
   7        -0.27
   8        -0.72
Sym=   A
Ene=  -0.78
Spin=  Beta
Occup= 1
   1         0.01
   2         0.19
   3        -0.48
   4        -0.57
   5         0.39
   6         0.78
   7        -0.21
   8        -0.17
Sym=   A
Ene=  -0.62
Spin=  Beta
Occup= 1
   1         0.38
   2        -0.48
   3         0.35
   4        -0.48
   5         0.51
   6        -0.18
   7         0.47
   8        -0.3
Sym=   A
Ene=   0.62
Spin=  Beta
Occup= 1
   1         1.47
   2        -0.0
   3        -0.69
   4        -0.82
   5        -0.75
   6        -0.66
   7        -0.04
   8         1.48
Sym=   A
Ene=   1.24
Spin=  Beta
Occup= 0
   1         0.53
   2        -1.25
   3        -0.4
   4         1.18
   5         1.13
   6        -0.27
   7        -1.27
   8         0.35
Sym=   A
Ene=   1.24
Spin=  Beta
Occup= 0
   1         0.37
   2        -0.96
   3         1.31
   4        -0.54
   5        -0.85
   6         1.39
   7        -0.85
   8         0.12
Sym=   A
Ene=   2.95
Spin=  Beta
Occup= 0
   1         1.55
   2        -1.52
   3        -1.67
   4         1.6
   5        -1.58
   6         1.52
   7         1.69
   8        -1.58
