[Molden Format]
made by Quiqbox

[Atoms] (AU)
F    1    9         -0.87        0.0         0.0
H    2    1          0.87        0.0         0.0

[GTO]
1 0
S    2   1.0
        63.73520195                    0.4301284983
        11.34483382                    0.6789135305
S    2   1.0
         2.498548256                   0.0494717692
         0.6336978147                  0.9637824081
P    2   1.0
         2.498548256                   0.5115407076
         0.6336978147                  0.6128198961

2 0
S    2   1.0
         1.309756377                   0.4301284983
         0.2331359749                  0.6789135305

[MO]
Sym=   A
Ene=  -25.05
Spin=  Alpha
Occup= 2
   1        -0.99
   2        -0.05
   3        -0.01
   4         0.0
   5         0.0
   6         0.01
Sym=   A
Ene=  -1.42
Spin=  Alpha
Occup= 2
   1        -0.29
   2         0.92
   3         0.08
   4         0.0
   5         0.0
   6         0.19
Sym=   A
Ene=  -0.54
Spin=  Alpha
Occup= 2
   1         0.11
   2        -0.47
   3         0.68
   4         0.0
   5         0.0
   6         0.55
Sym=   A
Ene=  -0.4
Spin=  Alpha
Occup= 2
   1         0.0
   2         0.0
   3         0.0
   4         1.0
   5         0.0
   6         0.0
Sym=   A
Ene=  -0.4
Spin=  Alpha
Occup= 2
   1         0.0
   2         0.0
   3         0.0
   4         0.0
   5         1.0
   6         0.0
Sym=   A
Ene=   0.69
Spin=  Alpha
Occup= 0
   1         0.11
   2        -0.56
   3        -0.84
   4         0.0
   5         0.0
   6         1.06
