[Molden Format]
made by Quiqbox

[Atoms] (AU)
X    1    X         -0.6            -0.6            -0.6
X    2    X         -0.6            -0.6             0.6
X    3    X         -0.6             0.6            -0.6
X    4    X         -0.6             0.6             0.6
X    5    X          0.6            -0.6            -0.6
X    6    X          0.6            -0.6             0.6
X    7    X          0.6             0.6            -0.6
X    8    X          0.6             0.6             0.6
H    9    1          0.700144        0.0             0.0
H    10   1         -0.700144        0.0             0.0

[GTO]
1 0
S    2   1.0
         1.309756377                   0.4301284983
         0.2331359749                  0.6789135305

2 0
S    2   1.0
         1.309756377                   0.4301284983
         0.2331359749                  0.6789135305

3 0
S    2   1.0
         1.309756377                   0.4301284983
         0.2331359749                  0.6789135305

4 0
S    2   1.0
         1.309756377                   0.4301284983
         0.2331359749                  0.6789135305

5 0
S    2   1.0
         1.309756377                   0.4301284983
         0.2331359749                  0.6789135305

6 0
S    2   1.0
         1.309756377                   0.4301284983
         0.2331359749                  0.6789135305

7 0
S    2   1.0
         1.309756377                   0.4301284983
         0.2331359749                  0.6789135305

8 0
S    2   1.0
         1.309756377                   0.4301284983
         0.2331359749                  0.6789135305

[MO]
Sym=   A
Ene=  -0.54227
Spin=  Alpha
Occup= 2
   1         0.15361
   2         0.15361
   3         0.15361
   4         0.15361
   5         0.153611
   6         0.153611
   7         0.153611
   8         0.153611
Sym=   A
Ene=   0.57855
Spin=  Alpha
Occup= 0
   1         0.413758
   2         0.413758
   3         0.413758
   4         0.413758
   5        -0.413758
   6        -0.413758
   7        -0.413758
   8        -0.413758
Sym=   A
Ene=   0.792417
Spin=  Alpha
Occup= 0
   1         0.429863
   2         0.397001
   3        -0.397001
   4        -0.429863
   5         0.429862
   6         0.397
   7        -0.397
   8        -0.429862
Sym=   A
Ene=   0.792417
Spin=  Alpha
Occup= 0
   1         0.397001
   2        -0.429863
   3         0.429863
   4        -0.397001
   5         0.397
   6        -0.429862
   7         0.429862
   8        -0.397
Sym=   A
Ene=   2.072928
Spin=  Alpha
Occup= 0
   1         0.786353
   2        -1.001022
   3         1.001022
   4        -0.786353
   5        -0.786353
   6         1.001022
   7        -1.001022
   8         0.786353
Sym=   A
Ene=   2.072928
Spin=  Alpha
Occup= 0
   1         1.001022
   2         0.786353
   3        -0.786353
   4        -1.001022
   5        -1.001022
   6        -0.786353
   7         0.786353
   8         1.001022
Sym=   A
Ene=   2.181013
Spin=  Alpha
Occup= 0
   1         0.90011
   2        -0.90011
   3        -0.900111
   4         0.900111
   5         0.900109
   6        -0.900109
   7        -0.90011
   8         0.90011
Sym=   A
Ene=   3.694511
Spin=  Alpha
Occup= 0
   1         1.593816
   2        -1.593816
   3        -1.593816
   4         1.593816
   5        -1.593817
   6         1.593817
   7         1.593817
   8        -1.593817
