[Molden Format]
made by Quiqbox

[Atoms] (AU)
X    1    X         -0.6        -0.6        -0.6
X    2    X         -0.6        -0.6         0.6
X    3    X         -0.6         0.6        -0.6
X    4    X         -0.6         0.6         0.6
X    5    X          0.6        -0.6        -0.6
X    6    X          0.6        -0.6         0.6
X    7    X          0.6         0.6        -0.6
X    8    X          0.6         0.6         0.6
H    9    1          0.87        0.0         0.0
F    10   9         -0.87        0.0         0.0

[GTO]
1 0
S    3   1.0
         3.425250914                   0.1543289673
         0.6239137298                  0.5353281423
         0.168855404                   0.4446345422

2 0
S    3   1.0
         3.425250914                   0.1543289673
         0.6239137298                  0.5353281423
         0.168855404                   0.4446345422

3 0
S    3   1.0
         3.425250914                   0.1543289673
         0.6239137298                  0.5353281423
         0.168855404                   0.4446345422

4 0
S    3   1.0
         3.425250914                   0.1543289673
         0.6239137298                  0.5353281423
         0.168855404                   0.4446345422

5 0
S    3   1.0
         3.425250914                   0.1543289673
         0.6239137298                  0.5353281423
         0.168855404                   0.4446345422

6 0
S    3   1.0
         3.425250914                   0.1543289673
         0.6239137298                  0.5353281423
         0.168855404                   0.4446345422

7 0
S    3   1.0
         3.425250914                   0.1543289673
         0.6239137298                  0.5353281423
         0.168855404                   0.4446345422

8 0
S    3   1.0
         3.425250914                   0.1543289673
         0.6239137298                  0.5353281423
         0.168855404                   0.4446345422

[MO]
Sym=   A
Ene=  -3.57
Spin=  Alpha
Occup= 1
   1         0.39
   2         0.39
   3         0.39
   4         0.39
   5        -0.15
   6        -0.15
   7        -0.15
   8        -0.15
Sym=   A
Ene=  -1.1
Spin=  Alpha
Occup= 1
   1         1.17
   2        -0.0
   3         0.0
   4        -1.17
   5        -0.17
   6         0.0
   7        -0.0
   8         0.17
Sym=   A
Ene=  -1.1
Spin=  Alpha
Occup= 1
   1         0.0
   2         1.17
   3        -1.17
   4        -0.0
   5        -0.0
   6        -0.17
   7         0.17
   8         0.0
Sym=   A
Ene=  -0.37
Spin=  Alpha
Occup= 1
   1         0.21
   2         0.21
   3         0.21
   4         0.21
   5        -0.41
   6        -0.41
   7        -0.41
   8        -0.41
Sym=   A
Ene=   0.62
Spin=  Alpha
Occup= 1
   1         1.46
   2        -1.46
   3        -1.46
   4         1.46
   5         0.21
   6        -0.21
   7        -0.21
   8         0.21
Sym=   A
Ene=   1.52
Spin=  Alpha
Occup= 0
   1         0.0
   2         0.79
   3        -0.79
   4        -0.0
   5        -0.0
   6        -1.4
   7         1.4
   8         0.0
Sym=   A
Ene=   1.52
Spin=  Alpha
Occup= 0
   1         0.79
   2        -0.0
   3         0.0
   4        -0.79
   5        -1.4
   6         0.0
   7        -0.0
   8         1.4
Sym=   A
Ene=   3.58
Spin=  Alpha
Occup= 0
   1         1.1
   2        -1.1
   3        -1.1
   4         1.1
   5        -1.82
   6         1.82
   7         1.82
   8        -1.82
Sym=   A
Ene=  -3.57
Spin=  Beta
Occup= 1
   1         0.39
   2         0.39
   3         0.39
   4         0.39
   5        -0.15
   6        -0.15
   7        -0.15
   8        -0.15
Sym=   A
Ene=  -1.1
Spin=  Beta
Occup= 1
   1         0.0
   2        -1.17
   3         1.17
   4        -0.0
   5        -0.0
   6         0.17
   7        -0.17
   8         0.0
Sym=   A
Ene=  -1.1
Spin=  Beta
Occup= 1
   1         1.17
   2         0.0
   3        -0.0
   4        -1.17
   5        -0.17
   6        -0.0
   7         0.0
   8         0.17
Sym=   A
Ene=  -0.37
Spin=  Beta
Occup= 1
   1         0.21
   2         0.21
   3         0.21
   4         0.21
   5        -0.41
   6        -0.41
   7        -0.41
   8        -0.41
Sym=   A
Ene=   0.62
Spin=  Beta
Occup= 1
   1         1.46
   2        -1.46
   3        -1.46
   4         1.46
   5         0.21
   6        -0.21
   7        -0.21
   8         0.21
Sym=   A
Ene=   1.52
Spin=  Beta
Occup= 0
   1         0.79
   2         0.0
   3        -0.0
   4        -0.79
   5        -1.4
   6        -0.0
   7         0.0
   8         1.4
Sym=   A
Ene=   1.52
Spin=  Beta
Occup= 0
   1         0.0
   2        -0.79
   3         0.79
   4        -0.0
   5        -0.0
   6         1.4
   7        -1.4
   8         0.0
Sym=   A
Ene=   3.58
Spin=  Beta
Occup= 0
   1         1.1
   2        -1.1
   3        -1.1
   4         1.1
   5        -1.82
   6         1.82
   7         1.82
   8        -1.82
