[Molden Format]
made by Quiqbox

[Atoms] (AU)
X    1    X         -0.6         -0.6         -0.6
X    2    X         -0.6         -0.6          0.6
X    3    X         -0.6          0.6         -0.6
X    4    X         -0.6          0.6          0.6
X    5    X          0.6         -0.6         -0.6
X    6    X          0.6         -0.6          0.6
X    7    X          0.6          0.6         -0.6
X    8    X          0.6          0.6          0.6
H    9    1          0.866        0.0          0.0
F    10   9         -0.866        0.0          0.0

[GTO]
1 0
S    2   1.0
         1.309756377                   0.4301284983
         0.2331359749                  0.6789135305

2 0
S    2   1.0
         1.309756377                   0.4301284983
         0.2331359749                  0.6789135305

3 0
S    2   1.0
         1.309756377                   0.4301284983
         0.2331359749                  0.6789135305

4 0
S    2   1.0
         1.309756377                   0.4301284983
         0.2331359749                  0.6789135305

5 0
S    2   1.0
         1.309756377                   0.4301284983
         0.2331359749                  0.6789135305

6 0
S    2   1.0
         1.309756377                   0.4301284983
         0.2331359749                  0.6789135305

7 0
S    2   1.0
         1.309756377                   0.4301284983
         0.2331359749                  0.6789135305

8 0
S    2   1.0
         1.309756377                   0.4301284983
         0.2331359749                  0.6789135305

[MO]
Sym=   A
Ene=  -3.662
Spin=  Alpha
Occup= 2
   1         0.39
   2         0.39
   3         0.39
   4         0.39
   5        -0.161
   6        -0.161
   7        -0.161
   8        -0.161
Sym=   A
Ene=  -1.199
Spin=  Alpha
Occup= 2
   1         1.184
   2        -0.001
   3         0.001
   4        -1.184
   5        -0.202
   6         0.0
   7        -0.0
   8         0.202
Sym=   A
Ene=  -1.199
Spin=  Alpha
Occup= 2
   1         0.001
   2         1.184
   3        -1.184
   4        -0.001
   5        -0.0
   6        -0.202
   7         0.202
   8         0.0
Sym=   A
Ene=  -0.421
Spin=  Alpha
Occup= 2
   1         0.207
   2         0.207
   3         0.207
   4         0.207
   5        -0.411
   6        -0.411
   7        -0.411
   8        -0.411
Sym=   A
Ene=   0.585
Spin=  Alpha
Occup= 2
   1         1.489
   2        -1.489
   3        -1.489
   4         1.489
   5         0.142
   6        -0.142
   7        -0.142
   8         0.142
Sym=   A
Ene=   1.385
Spin=  Alpha
Occup= 0
   1         0.75
   2         0.001
   3        -0.001
   4        -0.75
   5        -1.386
   6        -0.001
   7         0.001
   8         1.386
Sym=   A
Ene=   1.385
Spin=  Alpha
Occup= 0
   1         0.001
   2        -0.75
   3         0.75
   4        -0.001
   5        -0.001
   6         1.386
   7        -1.386
   8         0.001
Sym=   A
Ene=   3.117
Spin=  Alpha
Occup= 0
   1         1.064
   2        -1.064
   3        -1.064
   4         1.064
   5        -1.825
   6         1.825
   7         1.825
   8        -1.825
