[Molden Format]
made by Quiqbox

[Atoms] (AU)
X    1    X         -0.6           -0.6           -0.6
X    2    X         -0.6           -0.6            0.6
X    3    X         -0.6            0.6           -0.6
X    4    X         -0.6            0.6            0.6
X    5    X          0.6           -0.6           -0.6
X    6    X          0.6           -0.6            0.6
X    7    X          0.6            0.6           -0.6
X    8    X          0.6            0.6            0.6
H    9    1          0.70014        0.0            0.0
H    10   1         -0.70014        0.0            0.0

[GTO]
1 0
S    3   1.0
         3.425250914                   0.1543289673
         0.6239137298                  0.5353281423
         0.168855404                   0.4446345422

2 0
S    3   1.0
         3.425250914                   0.1543289673
         0.6239137298                  0.5353281423
         0.168855404                   0.4446345422

3 0
S    3   1.0
         3.425250914                   0.1543289673
         0.6239137298                  0.5353281423
         0.168855404                   0.4446345422

4 0
S    3   1.0
         3.425250914                   0.1543289673
         0.6239137298                  0.5353281423
         0.168855404                   0.4446345422

5 0
S    3   1.0
         3.425250914                   0.1543289673
         0.6239137298                  0.5353281423
         0.168855404                   0.4446345422

6 0
S    3   1.0
         3.425250914                   0.1543289673
         0.6239137298                  0.5353281423
         0.168855404                   0.4446345422

7 0
S    3   1.0
         3.425250914                   0.1543289673
         0.6239137298                  0.5353281423
         0.168855404                   0.4446345422

8 0
S    3   1.0
         3.425250914                   0.1543289673
         0.6239137298                  0.5353281423
         0.168855404                   0.4446345422

[MO]
Sym=   A
Ene=  -0.53408
Spin=  Alpha
Occup= 2
   1         0.15356
   2         0.15356
   3         0.15356
   4         0.15356
   5         0.15356
   6         0.15356
   7         0.15356
   8         0.15356
Sym=   A
Ene=   0.63846
Spin=  Alpha
Occup= 0
   1         0.41364
   2         0.41364
   3         0.41364
   4         0.41364
   5        -0.41364
   6        -0.41364
   7        -0.41364
   8        -0.41364
Sym=   A
Ene=   0.83376
Spin=  Alpha
Occup= 0
   1         0.40706
   2         0.42011
   3        -0.42011
   4        -0.40706
   5         0.40706
   6         0.42011
   7        -0.42011
   8        -0.40706
Sym=   A
Ene=   0.83376
Spin=  Alpha
Occup= 0
   1         0.42011
   2        -0.40706
   3         0.40706
   4        -0.42011
   5         0.42011
   6        -0.40706
   7         0.40706
   8        -0.42011
Sym=   A
Ene=   2.1859
Spin=  Alpha
Occup= 0
   1         0.85415
   2        -0.95327
   3         0.95327
   4        -0.85414
   5        -0.85415
   6         0.95327
   7        -0.95327
   8         0.85415
Sym=   A
Ene=   2.1859
Spin=  Alpha
Occup= 0
   1         0.95327
   2         0.85414
   3        -0.85415
   4        -0.95327
   5        -0.95327
   6        -0.85415
   7         0.85415
   8         0.95327
Sym=   A
Ene=   2.27233
Spin=  Alpha
Occup= 0
   1         0.90507
   2        -0.90507
   3        -0.90507
   4         0.90507
   5         0.90507
   6        -0.90507
   7        -0.90507
   8         0.90507
Sym=   A
Ene=   4.33165
Spin=  Alpha
Occup= 0
   1         1.58719
   2        -1.58719
   3        -1.58719
   4         1.58719
   5        -1.58719
   6         1.58719
   7         1.58719
   8        -1.58719
