[Molden Format]
made by Quiqbox

[Atoms] (AU)
F    1    9         -0.86644        0.00000        0.00000
H    2    1          0.86644        0.00000        0.00000

[GTO]
1 0
S    2   1.0
        63.73520195                    0.4301284983
        11.34483382                    0.6789135305
S    2   1.0
         2.498548256                   0.0494717692
         0.6336978147                  0.9637824081
P    2   1.0
         2.498548256                   0.5115407076
         0.6336978147                  0.6128198961

2 0
S    2   1.0
         1.309756377                   0.4301284983
         0.2331359749                  0.6789135305

[MO]
Sym=   A
Ene=  -25.04694
Spin=  Alpha
Occup= 1
   1        -0.98733
   2        -0.04757
   3        -0.00525
   4         0.00000
   5         0.00000
   6         0.01256
Sym=   A
Ene=  -1.41687
Spin=  Alpha
Occup= 1
   1        -0.28670
   2         0.92385
   3         0.08475
   4         0.00000
   5         0.00000
   6         0.18829
Sym=   A
Ene=  -0.53817
Spin=  Alpha
Occup= 1
   1         0.10851
   2        -0.46679
   3         0.67561
   4         0.00000
   5         0.00000
   6         0.55337
Sym=   A
Ene=  -0.39866
Spin=  Alpha
Occup= 1
   1         0.00000
   2         0.00000
   3         0.00000
   4         1.00000
   5         0.00000
   6         0.00000
Sym=   A
Ene=  -0.39866
Spin=  Alpha
Occup= 1
   1         0.00000
   2         0.00000
   3         0.00000
   4         0.00000
   5         1.00000
   6         0.00000
Sym=   A
Ene=   0.69257
Spin=  Alpha
Occup= 0
   1         0.10872
   2        -0.55575
   3        -0.84164
   4         0.00000
   5         0.00000
   6         1.05936
Sym=   A
Ene=  -25.04693
Spin=  Beta
Occup= 1
   1        -0.98733
   2        -0.04757
   3        -0.00525
   4         0.00000
   5         0.00000
   6         0.01256
Sym=   A
Ene=  -1.41681
Spin=  Beta
Occup= 1
   1        -0.28669
   2         0.92382
   3         0.08472
   4         0.00000
   5         0.00000
   6         0.18835
Sym=   A
Ene=  -0.53808
Spin=  Beta
Occup= 1
   1         0.10854
   2        -0.46697
   3         0.67537
   4         0.00000
   5         0.00000
   6         0.55367
Sym=   A
Ene=  -0.39865
Spin=  Beta
Occup= 1
   1         0.00000
   2         0.00000
   3         0.00000
   4         1.00000
   5         0.00000
   6         0.00000
Sym=   A
Ene=  -0.39865
Spin=  Beta
Occup= 1
   1         0.00000
   2         0.00000
   3         0.00000
   4         0.00000
   5         1.00000
   6         0.00000
Sym=   A
Ene=   0.69260
Spin=  Beta
Occup= 0
   1         0.10870
   2        -0.55566
   3        -0.84184
   4         0.00000
   5         0.00000
   6         1.05919
