[Molden Format]
made by Quiqbox

[Atoms] (AU)
X    1    X         -0.6       -0.6       -0.6
X    2    X         -0.6       -0.6        0.6
X    3    X         -0.6        0.6       -0.6
X    4    X         -0.6        0.6        0.6
X    5    X          0.6       -0.6       -0.6
X    6    X          0.6       -0.6        0.6
X    7    X          0.6        0.6       -0.6
X    8    X          0.6        0.6        0.6
N    9    7          0.0        0.0        0.2
H    10   1          0.0        1.8       -0.5
H    11   1          1.5       -0.9       -0.5
H    12   1         -1.5       -0.9       -0.5

[GTO]
1 0
S    3   1.0
         3.425250914                   0.1543289673
         0.6239137298                  0.5353281423
         0.168855404                   0.4446345422

2 0
S    3   1.0
         3.425250914                   0.1543289673
         0.6239137298                  0.5353281423
         0.168855404                   0.4446345422

3 0
S    3   1.0
         3.425250914                   0.1543289673
         0.6239137298                  0.5353281423
         0.168855404                   0.4446345422

4 0
S    3   1.0
         3.425250914                   0.1543289673
         0.6239137298                  0.5353281423
         0.168855404                   0.4446345422

5 0
S    3   1.0
         3.425250914                   0.1543289673
         0.6239137298                  0.5353281423
         0.168855404                   0.4446345422

6 0
S    3   1.0
         3.425250914                   0.1543289673
         0.6239137298                  0.5353281423
         0.168855404                   0.4446345422

7 0
S    3   1.0
         3.425250914                   0.1543289673
         0.6239137298                  0.5353281423
         0.168855404                   0.4446345422

8 0
S    3   1.0
         3.425250914                   0.1543289673
         0.6239137298                  0.5353281423
         0.168855404                   0.4446345422

[MO]
Sym=   A
Ene=  -2.4
Spin=  Alpha
Occup= 2
   1         0.1
   2         0.2
   3         0.1
   4         0.2
   5         0.1
   6         0.2
   7         0.1
   8         0.2
Sym=   A
Ene=  -0.7
Spin=  Alpha
Occup= 2
   1         0.4
   2         0.5
   3         0.2
   4         0.4
   5        -0.4
   6        -0.5
   7        -0.2
   8        -0.4
Sym=   A
Ene=  -0.7
Spin=  Alpha
Occup= 2
   1         0.3
   2         0.5
   3        -0.4
   4        -0.5
   5         0.3
   6         0.5
   7        -0.4
   8        -0.5
Sym=   A
Ene=  -0.5
Spin=  Alpha
Occup= 2
   1         0.5
   2        -0.4
   3         0.4
   4        -0.4
   5         0.5
   6        -0.4
   7         0.4
   8        -0.4
Sym=   A
Ene=   0.7
Spin=  Alpha
Occup= 2
   1         1.1
   2         0.5
   3        -0.4
   4        -1.3
   5        -1.1
   6        -0.5
   7         0.4
   8         1.3
Sym=   A
Ene=   1.3
Spin=  Alpha
Occup= 0
   1         0.9
   2        -0.9
   3        -0.9
   4         0.9
   5         0.9
   6        -0.9
   7        -0.9
   8         0.9
Sym=   A
Ene=   1.3
Spin=  Alpha
Occup= 0
   1         0.6
   2        -1.2
   3         1.1
   4        -0.3
   5        -0.6
   6         1.2
   7        -1.1
   8         0.3
Sym=   A
Ene=   3.4
Spin=  Alpha
Occup= 0
   1         1.6
   2        -1.5
   3        -1.7
   4         1.6
   5        -1.6
   6         1.5
   7         1.7
   8        -1.6
