[Molden Format]
made by Quiqbox

[Atoms] (AU)
X    1    X         -1.5246       -0.8802       -0.4898
X    2    X          0.0           0.0           0.2099
X    3    X          0.0           1.7605       -0.4898
X    4    X          1.5246       -0.8802       -0.4898
H    5    1          0.7001        0.0           0.0
H    6    1         -0.7001        0.0           0.0

[GTO]
1 0
S    3   1.0
         3.425250914                   0.1543289673
         0.6239137298                  0.5353281423
         0.168855404                   0.4446345422

2 0
S    3   1.0
         3.425250914                   0.1543289673
         0.6239137298                  0.5353281423
         0.168855404                   0.4446345422

3 0
S    3   1.0
         3.425250914                   0.1543289673
         0.6239137298                  0.5353281423
         0.168855404                   0.4446345422

4 0
S    3   1.0
         3.425250914                   0.1543289673
         0.6239137298                  0.5353281423
         0.168855404                   0.4446345422

[MO]
Sym=   A
Ene=  -0.4727
Spin=  Alpha
Occup= 1
   1         0.154
   2         0.7747
   3         0.1054
   4         0.1539
Sym=   A
Ene=   0.7749
Spin=  Alpha
Occup= 0
   1        -0.7996
   2         0.0001
   3         0.0003
   4         0.7993
Sym=   A
Ene=   0.8553
Spin=  Alpha
Occup= 0
   1        -0.4784
   2         0.0672
   3         0.9044
   4        -0.479
Sym=   A
Ene=   1.2452
Spin=  Alpha
Occup= 0
   1        -0.6605
   2         1.2021
   3        -0.7065
   4        -0.6605
Sym=   A
Ene=  -0.4727
Spin=  Beta
Occup= 1
   1         0.1539
   2         0.7747
   3         0.1054
   4         0.154
Sym=   A
Ene=   0.7749
Spin=  Beta
Occup= 0
   1         0.7993
   2         0.0001
   3         0.0003
   4        -0.7996
Sym=   A
Ene=   0.8553
Spin=  Beta
Occup= 0
   1        -0.479
   2         0.0672
   3         0.9044
   4        -0.4784
Sym=   A
Ene=   1.2452
Spin=  Beta
Occup= 0
   1        -0.6605
   2         1.2021
   3        -0.7065
   4        -0.6605
