[Molden Format]
made by Quiqbox

[Atoms] (AU)
X    1    X         -0.6        -0.6        -0.6
X    2    X         -0.6        -0.6         0.6
X    3    X         -0.6         0.6        -0.6
X    4    X         -0.6         0.6         0.6
X    5    X          0.6        -0.6        -0.6
X    6    X          0.6        -0.6         0.6
X    7    X          0.6         0.6        -0.6
X    8    X          0.6         0.6         0.6
H    9    1          0.7         0.0         0.0
H    10   1         -0.7         0.0         0.0

[GTO]
1 0
S    3   1.0
         3.425250914                   0.1543289673
         0.6239137298                  0.5353281423
         0.168855404                   0.4446345422

2 0
S    3   1.0
         3.425250914                   0.1543289673
         0.6239137298                  0.5353281423
         0.168855404                   0.4446345422

3 0
S    3   1.0
         3.425250914                   0.1543289673
         0.6239137298                  0.5353281423
         0.168855404                   0.4446345422

4 0
S    3   1.0
         3.425250914                   0.1543289673
         0.6239137298                  0.5353281423
         0.168855404                   0.4446345422

5 0
S    3   1.0
         3.425250914                   0.1543289673
         0.6239137298                  0.5353281423
         0.168855404                   0.4446345422

6 0
S    3   1.0
         3.425250914                   0.1543289673
         0.6239137298                  0.5353281423
         0.168855404                   0.4446345422

7 0
S    3   1.0
         3.425250914                   0.1543289673
         0.6239137298                  0.5353281423
         0.168855404                   0.4446345422

8 0
S    3   1.0
         3.425250914                   0.1543289673
         0.6239137298                  0.5353281423
         0.168855404                   0.4446345422

[MO]
Sym=   A
Ene=  -0.53
Spin=  Alpha
Occup= 1
   1         0.15
   2         0.15
   3         0.15
   4         0.15
   5         0.15
   6         0.15
   7         0.15
   8         0.15
Sym=   A
Ene=   0.64
Spin=  Alpha
Occup= 0
   1         0.41
   2         0.41
   3         0.41
   4         0.41
   5        -0.41
   6        -0.41
   7        -0.41
   8        -0.41
Sym=   A
Ene=   0.83
Spin=  Alpha
Occup= 0
   1         0.0
   2         0.59
   3        -0.59
   4        -0.0
   5         0.0
   6         0.58
   7        -0.58
   8        -0.0
Sym=   A
Ene=   0.83
Spin=  Alpha
Occup= 0
   1         0.59
   2        -0.0
   3         0.0
   4        -0.59
   5         0.58
   6        -0.0
   7         0.0
   8        -0.58
Sym=   A
Ene=   2.19
Spin=  Alpha
Occup= 0
   1         0.0
   2         1.28
   3        -1.28
   4        -0.0
   5        -0.0
   6        -1.28
   7         1.28
   8         0.0
Sym=   A
Ene=   2.19
Spin=  Alpha
Occup= 0
   1         1.28
   2        -0.0
   3         0.0
   4        -1.28
   5        -1.28
   6         0.0
   7        -0.0
   8         1.28
Sym=   A
Ene=   2.27
Spin=  Alpha
Occup= 0
   1         0.91
   2        -0.91
   3        -0.91
   4         0.91
   5         0.9
   6        -0.9
   7        -0.9
   8         0.9
Sym=   A
Ene=   4.33
Spin=  Alpha
Occup= 0
   1         1.59
   2        -1.59
   3        -1.59
   4         1.59
   5        -1.59
   6         1.59
   7         1.59
   8        -1.59
Sym=   A
Ene=  -0.53
Spin=  Beta
Occup= 1
   1         0.15
   2         0.15
   3         0.15
   4         0.15
   5         0.15
   6         0.15
   7         0.15
   8         0.15
Sym=   A
Ene=   0.64
Spin=  Beta
Occup= 0
   1         0.41
   2         0.41
   3         0.41
   4         0.41
   5        -0.41
   6        -0.41
   7        -0.41
   8        -0.41
Sym=   A
Ene=   0.83
Spin=  Beta
Occup= 0
   1         0.15
   2         0.57
   3        -0.57
   4        -0.15
   5         0.15
   6         0.57
   7        -0.57
   8        -0.15
Sym=   A
Ene=   0.83
Spin=  Beta
Occup= 0
   1         0.57
   2        -0.15
   3         0.15
   4        -0.57
   5         0.57
   6        -0.15
   7         0.15
   8        -0.57
Sym=   A
Ene=   2.19
Spin=  Beta
Occup= 0
   1         0.2
   2         1.26
   3        -1.26
   4        -0.2
   5        -0.2
   6        -1.26
   7         1.26
   8         0.2
Sym=   A
Ene=   2.19
Spin=  Beta
Occup= 0
   1         1.26
   2        -0.2
   3         0.2
   4        -1.26
   5        -1.26
   6         0.2
   7        -0.2
   8         1.26
Sym=   A
Ene=   2.27
Spin=  Beta
Occup= 0
   1         0.9
   2        -0.9
   3        -0.9
   4         0.9
   5         0.91
   6        -0.91
   7        -0.91
   8         0.91
Sym=   A
Ene=   4.33
Spin=  Beta
Occup= 0
   1         1.59
   2        -1.59
   3        -1.59
   4         1.59
   5        -1.59
   6         1.59
   7         1.59
   8        -1.59
