[Molden Format]
made by Quiqbox

[Atoms] (AU)
X    1    X         -0.60000        -0.60000        -0.60000
X    2    X         -0.60000        -0.60000         0.60000
X    3    X         -0.60000         0.60000        -0.60000
X    4    X         -0.60000         0.60000         0.60000
X    5    X          0.60000        -0.60000        -0.60000
X    6    X          0.60000        -0.60000         0.60000
X    7    X          0.60000         0.60000        -0.60000
X    8    X          0.60000         0.60000         0.60000
H    9    1          0.86644         0.00000         0.00000
F    10   9         -0.86644         0.00000         0.00000

[GTO]
1 0
S    2   1.0
         1.30976         0.43013
         0.23314         0.67891

2 0
S    2   1.0
         1.30976         0.43013
         0.23314         0.67891

3 0
S    2   1.0
         1.30976         0.43013
         0.23314         0.67891

4 0
S    2   1.0
         1.30976         0.43013
         0.23314         0.67891

5 0
S    2   1.0
         1.30976         0.43013
         0.23314         0.67891

6 0
S    2   1.0
         1.30976         0.43013
         0.23314         0.67891

7 0
S    2   1.0
         1.30976         0.43013
         0.23314         0.67891

8 0
S    2   1.0
         1.30976         0.43013
         0.23314         0.67891

[MO]
Sym=   A
Ene=  -3.66158
Spin=  Alpha
Occup= 1
   1         0.39001
   2         0.39001
   3         0.39001
   4         0.39001
   5        -0.16070
   6        -0.16070
   7        -0.16070
   8        -0.16070
Sym=   A
Ene=  -1.19890
Spin=  Alpha
Occup= 1
   1         1.07408
   2        -0.49707
   3         0.49707
   4        -1.07408
   5        -0.18296
   6         0.08467
   7        -0.08467
   8         0.18296
Sym=   A
Ene=  -1.19890
Spin=  Alpha
Occup= 1
   1         0.49707
   2         1.07408
   3        -1.07408
   4        -0.49707
   5        -0.08467
   6        -0.18296
   7         0.18296
   8         0.08467
Sym=   A
Ene=  -0.42078
Spin=  Alpha
Occup= 1
   1         0.20660
   2         0.20660
   3         0.20660
   4         0.20660
   5        -0.41106
   6        -0.41106
   7        -0.41106
   8        -0.41105
Sym=   A
Ene=   0.58528
Spin=  Alpha
Occup= 1
   1         1.48929
   2        -1.48929
   3        -1.48929
   4         1.48929
   5         0.14231
   6        -0.14231
   7        -0.14231
   8         0.14231
Sym=   A
Ene=   1.38531
Spin=  Alpha
Occup= 0
   1         0.04056
   2         0.74861
   3        -0.74861
   4        -0.04056
   5        -0.07501
   6        -1.38438
   7         1.38438
   8         0.07501
Sym=   A
Ene=   1.38531
Spin=  Alpha
Occup= 0
   1         0.74861
   2        -0.04056
   3         0.04056
   4        -0.74861
   5        -1.38438
   6         0.07501
   7        -0.07501
   8         1.38438
Sym=   A
Ene=   3.11664
Spin=  Alpha
Occup= 0
   1         1.06418
   2        -1.06418
   3        -1.06418
   4         1.06418
   5        -1.82488
   6         1.82488
   7         1.82488
   8        -1.82488
Sym=   A
Ene=  -3.66158
Spin=  Beta
Occup= 1
   1         0.39001
   2         0.39001
   3         0.39001
   4         0.39001
   5        -0.16070
   6        -0.16070
   7        -0.16070
   8        -0.16070
Sym=   A
Ene=  -1.19890
Spin=  Beta
Occup= 1
   1         1.18348
   2        -0.01059
   3         0.01059
   4        -1.18348
   5        -0.20160
   6         0.00180
   7        -0.00180
   8         0.20160
Sym=   A
Ene=  -1.19890
Spin=  Beta
Occup= 1
   1         0.01059
   2         1.18348
   3        -1.18348
   4        -0.01059
   5        -0.00180
   6        -0.20160
   7         0.20160
   8         0.00180
Sym=   A
Ene=  -0.42078
Spin=  Beta
Occup= 1
   1         0.20660
   2         0.20660
   3         0.20660
   4         0.20660
   5        -0.41105
   6        -0.41106
   7        -0.41106
   8        -0.41106
Sym=   A
Ene=   0.58528
Spin=  Beta
Occup= 1
   1         1.48929
   2        -1.48929
   3        -1.48929
   4         1.48929
   5         0.14231
   6        -0.14231
   7        -0.14231
   8         0.14231
Sym=   A
Ene=   1.38531
Spin=  Beta
Occup= 0
   1         0.74962
   2        -0.01108
   3         0.01108
   4        -0.74962
   5        -1.38626
   6         0.02049
   7        -0.02049
   8         1.38626
Sym=   A
Ene=   1.38531
Spin=  Beta
Occup= 0
   1         0.01108
   2         0.74962
   3        -0.74962
   4        -0.01108
   5        -0.02049
   6        -1.38626
   7         1.38626
   8         0.02049
Sym=   A
Ene=   3.11664
Spin=  Beta
Occup= 0
   1         1.06418
   2        -1.06418
   3        -1.06418
   4         1.06418
   5        -1.82488
   6         1.82488
   7         1.82488
   8        -1.82488
