[Molden Format]
made by Quiqbox

[Atoms] (AU)
X    1    X         -0.60000       -0.60000       -0.60000
X    2    X         -0.60000       -0.60000        0.60000
X    3    X         -0.60000        0.60000       -0.60000
X    4    X         -0.60000        0.60000        0.60000
X    5    X          0.60000       -0.60000       -0.60000
X    6    X          0.60000       -0.60000        0.60000
X    7    X          0.60000        0.60000       -0.60000
X    8    X          0.60000        0.60000        0.60000
H    9    1          0.70014        0.00000        0.00000
H    10   1         -0.70014        0.00000        0.00000

[GTO]
1 0
S    2   1.0
         1.309756377                   0.4301284983
         0.2331359749                  0.6789135305

2 0
S    2   1.0
         1.309756377                   0.4301284983
         0.2331359749                  0.6789135305

3 0
S    2   1.0
         1.309756377                   0.4301284983
         0.2331359749                  0.6789135305

4 0
S    2   1.0
         1.309756377                   0.4301284983
         0.2331359749                  0.6789135305

5 0
S    2   1.0
         1.309756377                   0.4301284983
         0.2331359749                  0.6789135305

6 0
S    2   1.0
         1.309756377                   0.4301284983
         0.2331359749                  0.6789135305

7 0
S    2   1.0
         1.309756377                   0.4301284983
         0.2331359749                  0.6789135305

8 0
S    2   1.0
         1.309756377                   0.4301284983
         0.2331359749                  0.6789135305

[MO]
Sym=   A
Ene=  -0.54227
Spin=  Alpha
Occup= 2
   1         0.15361
   2         0.15361
   3         0.15361
   4         0.15361
   5         0.15361
   6         0.15361
   7         0.15361
   8         0.15361
Sym=   A
Ene=   0.57855
Spin=  Alpha
Occup= 0
   1         0.41376
   2         0.41376
   3         0.41376
   4         0.41376
   5        -0.41376
   6        -0.41376
   7        -0.41376
   8        -0.41376
Sym=   A
Ene=   0.79242
Spin=  Alpha
Occup= 0
   1         0.42986
   2         0.39700
   3        -0.39700
   4        -0.42986
   5         0.42986
   6         0.39700
   7        -0.39700
   8        -0.42986
Sym=   A
Ene=   0.79242
Spin=  Alpha
Occup= 0
   1         0.39700
   2        -0.42986
   3         0.42986
   4        -0.39700
   5         0.39700
   6        -0.42986
   7         0.42986
   8        -0.39700
Sym=   A
Ene=   2.07293
Spin=  Alpha
Occup= 0
   1         0.78635
   2        -1.00102
   3         1.00102
   4        -0.78635
   5        -0.78635
   6         1.00102
   7        -1.00102
   8         0.78635
Sym=   A
Ene=   2.07293
Spin=  Alpha
Occup= 0
   1         1.00102
   2         0.78635
   3        -0.78635
   4        -1.00102
   5        -1.00102
   6        -0.78635
   7         0.78635
   8         1.00102
Sym=   A
Ene=   2.18101
Spin=  Alpha
Occup= 0
   1         0.90011
   2        -0.90011
   3        -0.90011
   4         0.90011
   5         0.90011
   6        -0.90011
   7        -0.90011
   8         0.90011
Sym=   A
Ene=   3.69451
Spin=  Alpha
Occup= 0
   1         1.59382
   2        -1.59382
   3        -1.59382
   4         1.59382
   5        -1.59382
   6         1.59382
   7         1.59382
   8        -1.59382
