[Molden Format]
made by Quiqbox

[Atoms] (AU)
X    1    X           -0.60000        -0.60000        -0.60000
X    2    X           -0.60000        -0.60000         0.60000
X    3    X           -0.60000         0.60000        -0.60000
X    4    X           -0.60000         0.60000         0.60000
X    5    X            0.60000        -0.60000        -0.60000
X    6    X            0.60000        -0.60000         0.60000
X    7    X            0.60000         0.60000        -0.60000
X    8    X            0.60000         0.60000         0.60000
H    9    1            0.86644         0.00000         0.00000
F    10   9           -0.86644         0.00000         0.00000

[GTO]
1 0
S    2   1.0
         1.30976         0.43013
         0.23314         0.67891

2 0
S    2   1.0
         1.30976         0.43013
         0.23314         0.67891

3 0
S    2   1.0
         1.30976         0.43013
         0.23314         0.67891

4 0
S    2   1.0
         1.30976         0.43013
         0.23314         0.67891

5 0
S    2   1.0
         1.30976         0.43013
         0.23314         0.67891

6 0
S    2   1.0
         1.30976         0.43013
         0.23314         0.67891

7 0
S    2   1.0
         1.30976         0.43013
         0.23314         0.67891

8 0
S    2   1.0
         1.30976         0.43013
         0.23314         0.67891

[MO]
Sym=   A
Ene=  -3.66158
Spin=  Alpha
Occup= 2
   1     0.39001
   2     0.39001
   3     0.39001
   4     0.39001
   5    -0.16070
   6    -0.16070
   7    -0.16070
   8    -0.16070
Sym=   A
Ene=  -1.19890
Spin=  Alpha
Occup= 2
   1     1.17265
   2     0.16005
   3    -0.16005
   4    -1.17265
   5    -0.19975
   6    -0.02726
   7     0.02726
   8     0.19975
Sym=   A
Ene=  -1.19890
Spin=  Alpha
Occup= 2
   1     0.16005
   2    -1.17265
   3     1.17265
   4    -0.16005
   5    -0.02726
   6     0.19975
   7    -0.19975
   8     0.02726
Sym=   A
Ene=  -0.42078
Spin=  Alpha
Occup= 2
   1     0.20660
   2     0.20660
   3     0.20660
   4     0.20660
   5    -0.41106
   6    -0.41106
   7    -0.41106
   8    -0.41106
Sym=   A
Ene=   0.58528
Spin=  Alpha
Occup= 2
   1     1.48929
   2    -1.48929
   3    -1.48929
   4     1.48929
   5     0.14231
   6    -0.14231
   7    -0.14231
   8     0.14231
Sym=   A
Ene=   1.38531
Spin=  Alpha
Occup= 0
   1     0.12486
   2    -0.73923
   3     0.73923
   4    -0.12486
   5    -0.23090
   6     1.36705
   7    -1.36705
   8     0.23090
Sym=   A
Ene=   1.38531
Spin=  Alpha
Occup= 0
   1     0.73923
   2     0.12486
   3    -0.12486
   4    -0.73923
   5    -1.36705
   6    -0.23090
   7     0.23090
   8     1.36705
Sym=   A
Ene=   3.11664
Spin=  Alpha
Occup= 0
   1     1.06418
   2    -1.06418
   3    -1.06418
   4     1.06418
   5    -1.82488
   6     1.82488
   7     1.82488
   8    -1.82488
