[Molden Format]
made by Quiqbox

[Atoms] (AU)
X    1    X         -0.60000        -0.60000        -0.60000
X    2    X         -0.60000        -0.60000         0.60000
X    3    X         -0.60000         0.60000        -0.60000
X    4    X         -0.60000         0.60000         0.60000
X    5    X          0.60000        -0.60000        -0.60000
X    6    X          0.60000        -0.60000         0.60000
X    7    X          0.60000         0.60000        -0.60000
X    8    X          0.60000         0.60000         0.60000
H    9    1          0.70014         0.00000         0.00000
H    10   1         -0.70014         0.00000         0.00000

[GTO]
1 0
S    3   1.0
         3.42525         0.15433
         0.62391         0.53533
         0.16886         0.44463

2 0
S    3   1.0
         3.42525         0.15433
         0.62391         0.53533
         0.16886         0.44463

3 0
S    3   1.0
         3.42525         0.15433
         0.62391         0.53533
         0.16886         0.44463

4 0
S    3   1.0
         3.42525         0.15433
         0.62391         0.53533
         0.16886         0.44463

5 0
S    3   1.0
         3.42525         0.15433
         0.62391         0.53533
         0.16886         0.44463

6 0
S    3   1.0
         3.42525         0.15433
         0.62391         0.53533
         0.16886         0.44463

7 0
S    3   1.0
         3.42525         0.15433
         0.62391         0.53533
         0.16886         0.44463

8 0
S    3   1.0
         3.42525         0.15433
         0.62391         0.53533
         0.16886         0.44463

[MO]
Sym=   A
Ene=  -0.53408
Spin=  Alpha
Occup= 2
   1         0.15356
   2         0.15356
   3         0.15356
   4         0.15356
   5         0.15356
   6         0.15356
   7         0.15356
   8         0.15356
Sym=   A
Ene=   0.63846
Spin=  Alpha
Occup= 0
   1         0.41364
   2         0.41364
   3         0.41364
   4         0.41364
   5        -0.41364
   6        -0.41364
   7        -0.41364
   8        -0.41364
Sym=   A
Ene=   0.83376
Spin=  Alpha
Occup= 0
   1         0.58497
   2         0.00000
   3         0.00000
   4        -0.58497
   5         0.58497
   6        -0.00000
   7        -0.00000
   8        -0.58497
Sym=   A
Ene=   0.83376
Spin=  Alpha
Occup= 0
   1         0.00000
   2        -0.58497
   3         0.58497
   4        -0.00000
   5         0.00000
   6        -0.58497
   7         0.58497
   8        -0.00000
Sym=   A
Ene=   2.18590
Spin=  Alpha
Occup= 0
   1         0.00000
   2         1.27996
   3        -1.27996
   4         0.00000
   5         0.00000
   6        -1.27996
   7         1.27996
   8        -0.00000
Sym=   A
Ene=   2.18590
Spin=  Alpha
Occup= 0
   1         1.27996
   2         0.00000
   3         0.00000
   4        -1.27996
   5        -1.27996
   6         0.00000
   7         0.00000
   8         1.27996
Sym=   A
Ene=   2.27233
Spin=  Alpha
Occup= 0
   1         0.90507
   2        -0.90507
   3        -0.90507
   4         0.90507
   5         0.90507
   6        -0.90507
   7        -0.90507
   8         0.90507
Sym=   A
Ene=   4.33165
Spin=  Alpha
Occup= 0
   1         1.58719
   2        -1.58719
   3        -1.58719
   4         1.58719
   5        -1.58719
   6         1.58719
   7         1.58719
   8        -1.58719
