[Molden Format]
made by Quiqbox

[Atoms] (AU)
F    1    9         -0.86644         0.00000         0.00000
H    2    1          0.86644         0.00000         0.00000

[GTO]
1 0
S    2   1.0
        63.73520195                0.4301284983
        11.34483382                0.6789135305
S    2   1.0
         2.498548256               0.0494717692
         0.6336978147              0.9637824081
P    2   1.0
         2.498548256               0.5115407076
         0.6336978147              0.6128198961

2 0
S    2   1.0
         1.309756377               0.4301284983
         0.2331359749              0.6789135305

[MO]
Sym=   A
Ene=  -25.24051
Spin=  Alpha
Occup= 1
   1        -0.98725
   2        -0.04781
   3        -0.00452
   4         0.00000
   5         0.00000
   6         0.01235
Sym=   A
Ene=  -1.56322
Spin=  Alpha
Occup= 1
   1        -0.30040
   2         0.98595
   3         0.02503
   4         0.00000
   5         0.00000
   6         0.09540
Sym=   A
Ene=  -0.65865
Spin=  Alpha
Occup= 1
   1         0.00000
   2         0.00000
   3         0.00000
   4         0.00000
   5         1.00000
   6         0.00000
Sym=   A
Ene=  -0.62165
Spin=  Alpha
Occup= 1
   1         0.05347
   2        -0.24488
   3         0.83061
   4         0.00000
   5         0.00000
   6         0.35577
Sym=   A
Ene=  -0.54867
Spin=  Alpha
Occup= 1
   1         0.00000
   2         0.00000
   3         0.00000
   4         1.00000
   5         0.00000
   6         0.00000
Sym=   A
Ene=   0.77217
Spin=  Alpha
Occup= 0
   1         0.11337
   2        -0.59007
   3        -0.69387
   4         0.00000
   5         0.00000
   6         1.15249
Sym=   A
Ene=  -25.23895
Spin=  Beta
Occup= 1
   1        -0.98765
   2        -0.04647
   3        -0.00446
   4         0.00000
   5         0.00000
   6         0.01230
Sym=   A
Ene=  -1.44731
Spin=  Beta
Occup= 1
   1        -0.28971
   2         0.94401
   3         0.10512
   4         0.00000
   5         0.00000
   6         0.15159
Sym=   A
Ene=  -0.70926
Spin=  Beta
Occup= 1
   1         0.09345
   2        -0.39064
   3         0.77506
   4         0.00000
   5         0.00000
   6         0.41851
Sym=   A
Ene=  -0.51923
Spin=  Beta
Occup= 1
   1         0.00000
   2         0.00000
   3         0.00000
   4         1.00000
   5         0.00000
   6         0.00000
Sym=   A
Ene=   0.09812
Spin=  Beta
Occup= 1
   1         0.11180
   2        -0.58018
   3        -0.74848
   4         0.00000
   5         0.00000
   6         1.12507
Sym=   A
Ene=   0.31208
Spin=  Beta
Occup= 0
   1         0.00000
   2         0.00000
   3         0.00000
   4         0.00000
   5         1.00000
   6         0.00000
