[Molden Format]
made by Quiqbox

[Atoms] (AU)
X    1    X         -0.6          -0.6          -0.6
X    2    X         -0.6          -0.6           0.6
X    3    X         -0.6           0.6          -0.6
X    4    X         -0.6           0.6           0.6
X    5    X          0.6          -0.6          -0.6
X    6    X          0.6          -0.6           0.6
X    7    X          0.6           0.6          -0.6
X    8    X          0.6           0.6           0.6
H    9    1          0.8664        0.0           0.0
F    10   9         -0.8664        0.0           0.0

[GTO]
1 0
S    3   1.0
         3.425250914                   0.1543289673
         0.6239137298                  0.5353281423
         0.168855404                   0.4446345422

2 0
S    3   1.0
         3.425250914                   0.1543289673
         0.6239137298                  0.5353281423
         0.168855404                   0.4446345422

3 0
S    3   1.0
         3.425250914                   0.1543289673
         0.6239137298                  0.5353281423
         0.168855404                   0.4446345422

4 0
S    3   1.0
         3.425250914                   0.1543289673
         0.6239137298                  0.5353281423
         0.168855404                   0.4446345422

5 0
S    3   1.0
         3.425250914                   0.1543289673
         0.6239137298                  0.5353281423
         0.168855404                   0.4446345422

6 0
S    3   1.0
         3.425250914                   0.1543289673
         0.6239137298                  0.5353281423
         0.168855404                   0.4446345422

7 0
S    3   1.0
         3.425250914                   0.1543289673
         0.6239137298                  0.5353281423
         0.168855404                   0.4446345422

8 0
S    3   1.0
         3.425250914                   0.1543289673
         0.6239137298                  0.5353281423
         0.168855404                   0.4446345422

[MO]
Sym=   A
Ene=  -3.5684
Spin=  Alpha
Occup= 2
   1         0.3859
   2         0.3859
   3         0.3859
   4         0.3859
   5        -0.1527
   6        -0.1527
   7        -0.1527
   8        -0.1527
Sym=   A
Ene=  -1.105
Spin=  Alpha
Occup= 2
   1         1.1655
   2        -0.0014
   3         0.0014
   4        -1.1655
   5        -0.1664
   6         0.0002
   7        -0.0002
   8         0.1664
Sym=   A
Ene=  -1.105
Spin=  Alpha
Occup= 2
   1         0.0014
   2         1.1655
   3        -1.1655
   4        -0.0014
   5        -0.0002
   6        -0.1664
   7         0.1664
   8         0.0002
Sym=   A
Ene=  -0.3663
Spin=  Alpha
Occup= 2
   1         0.214
   2         0.214
   3         0.214
   4         0.214
   5        -0.4139
   6        -0.4139
   7        -0.4139
   8        -0.4139
Sym=   A
Ene=   0.6154
Spin=  Alpha
Occup= 2
   1         1.4562
   2        -1.4562
   3        -1.4562
   4         1.4562
   5         0.2082
   6        -0.2082
   7        -0.2082
   8         0.2082
Sym=   A
Ene=   1.5191
Spin=  Alpha
Occup= 0
   1         0.7887
   2         0.0012
   3        -0.0012
   4        -0.7887
   5        -1.3974
   6        -0.0021
   7         0.0021
   8         1.3974
Sym=   A
Ene=   1.5191
Spin=  Alpha
Occup= 0
   1         0.0012
   2        -0.7887
   3         0.7887
   4        -0.0012
   5        -0.0021
   6         1.3974
   7        -1.3974
   8         0.0021
Sym=   A
Ene=   3.5834
Spin=  Alpha
Occup= 0
   1         1.1036
   2        -1.1036
   3        -1.1036
   4         1.1036
   5        -1.8152
   6         1.8152
   7         1.8152
   8        -1.8152
