[Molden Format]
made by Quiqbox

[Atoms] (AU)
X    1    X           -0.60000        -0.60000        -0.60000
X    2    X           -0.60000        -0.60000         0.60000
X    3    X           -0.60000         0.60000        -0.60000
X    4    X           -0.60000         0.60000         0.60000
X    5    X            0.60000        -0.60000        -0.60000
X    6    X            0.60000        -0.60000         0.60000
X    7    X            0.60000         0.60000        -0.60000
X    8    X            0.60000         0.60000         0.60000
H    9    1            0.86644         0.00000         0.00000
F    10   9           -0.86644         0.00000         0.00000

[GTO]
1 0
S    2   1.0
         1.30976         0.43013
         0.23314         0.67891

2 0
S    2   1.0
         1.30976         0.43013
         0.23314         0.67891

3 0
S    2   1.0
         1.30976         0.43013
         0.23314         0.67891

4 0
S    2   1.0
         1.30976         0.43013
         0.23314         0.67891

5 0
S    2   1.0
         1.30976         0.43013
         0.23314         0.67891

6 0
S    2   1.0
         1.30976         0.43013
         0.23314         0.67891

7 0
S    2   1.0
         1.30976         0.43013
         0.23314         0.67891

8 0
S    2   1.0
         1.30976         0.43013
         0.23314         0.67891

[MO]
Sym=   A
Ene=  -3.66158
Spin=  Alpha
Occup= 1
   1     0.39001
   2     0.39001
   3     0.39001
   4     0.39001
   5    -0.16070
   6    -0.16070
   7    -0.16070
   8    -0.16070
Sym=   A
Ene=  -1.19890
Spin=  Alpha
Occup= 1
   1     0.45824
   2     1.09121
   3    -1.09121
   4    -0.45824
   5    -0.07806
   6    -0.18588
   7     0.18588
   8     0.07806
Sym=   A
Ene=  -1.19890
Spin=  Alpha
Occup= 1
   1     1.09121
   2    -0.45824
   3     0.45824
   4    -1.09121
   5    -0.18588
   6     0.07806
   7    -0.07806
   8     0.18588
Sym=   A
Ene=  -0.42078
Spin=  Alpha
Occup= 1
   1     0.20660
   2     0.20660
   3     0.20660
   4     0.20660
   5    -0.41106
   6    -0.41106
   7    -0.41106
   8    -0.41106
Sym=   A
Ene=   0.58528
Spin=  Alpha
Occup= 1
   1     1.48929
   2    -1.48929
   3    -1.48929
   4     1.48929
   5     0.14231
   6    -0.14231
   7    -0.14231
   8     0.14231
Sym=   A
Ene=   1.38531
Spin=  Alpha
Occup= 0
   1     0.10265
   2     0.74264
   3    -0.74264
   4    -0.10265
   5    -0.18983
   6    -1.37336
   7     1.37336
   8     0.18983
Sym=   A
Ene=   1.38531
Spin=  Alpha
Occup= 0
   1     0.74264
   2    -0.10265
   3     0.10265
   4    -0.74264
   5    -1.37336
   6     0.18983
   7    -0.18983
   8     1.37336
Sym=   A
Ene=   3.11664
Spin=  Alpha
Occup= 0
   1     1.06418
   2    -1.06418
   3    -1.06418
   4     1.06418
   5    -1.82488
   6     1.82488
   7     1.82488
   8    -1.82488
Sym=   A
Ene=  -3.66158
Spin=  Beta
Occup= 1
   1     0.39001
   2     0.39001
   3     0.39001
   4     0.39001
   5    -0.16070
   6    -0.16070
   7    -0.16070
   8    -0.16070
Sym=   A
Ene=  -1.19890
Spin=  Beta
Occup= 1
   1     0.23349
   2     1.16026
   3    -1.16026
   4    -0.23349
   5    -0.03977
   6    -0.19764
   7     0.19764
   8     0.03977
Sym=   A
Ene=  -1.19890
Spin=  Beta
Occup= 1
   1     1.16026
   2    -0.23349
   3     0.23349
   4    -1.16026
   5    -0.19764
   6     0.03977
   7    -0.03977
   8     0.19764
Sym=   A
Ene=  -0.42078
Spin=  Beta
Occup= 1
   1     0.20660
   2     0.20660
   3     0.20660
   4     0.20660
   5    -0.41106
   6    -0.41106
   7    -0.41106
   8    -0.41106
Sym=   A
Ene=   0.58528
Spin=  Beta
Occup= 1
   1     1.48929
   2    -1.48929
   3    -1.48929
   4     1.48929
   5     0.14231
   6    -0.14231
   7    -0.14231
   8     0.14231
Sym=   A
Ene=   1.38531
Spin=  Beta
Occup= 0
   1     0.19639
   2     0.72353
   3    -0.72352
   4    -0.19639
   5    -0.36318
   6    -1.33800
   7     1.33800
   8     0.36318
Sym=   A
Ene=   1.38531
Spin=  Beta
Occup= 0
   1     0.72352
   2    -0.19639
   3     0.19639
   4    -0.72352
   5    -1.33800
   6     0.36318
   7    -0.36318
   8     1.33800
Sym=   A
Ene=   3.11664
Spin=  Beta
Occup= 0
   1     1.06418
   2    -1.06418
   3    -1.06418
   4     1.06418
   5    -1.82488
   6     1.82488
   7     1.82488
   8    -1.82488
