[Molden Format]
made by Quiqbox

[Atoms] (AU)
X    1    X         -0.6            -0.6            -0.6
X    2    X         -0.6            -0.6             0.6
X    3    X         -0.6             0.6            -0.6
X    4    X         -0.6             0.6             0.6
X    5    X          0.6            -0.6            -0.6
X    6    X          0.6            -0.6             0.6
X    7    X          0.6             0.6            -0.6
X    8    X          0.6             0.6             0.6
H    9    1          0.700144        0.0             0.0
H    10   1         -0.700144        0.0             0.0

[GTO]
1 0
S    2   1.0
         1.309756377                   0.4301284983
         0.2331359749                  0.6789135305

2 0
S    2   1.0
         1.309756377                   0.4301284983
         0.2331359749                  0.6789135305

3 0
S    2   1.0
         1.309756377                   0.4301284983
         0.2331359749                  0.6789135305

4 0
S    2   1.0
         1.309756377                   0.4301284983
         0.2331359749                  0.6789135305

5 0
S    2   1.0
         1.309756377                   0.4301284983
         0.2331359749                  0.6789135305

6 0
S    2   1.0
         1.309756377                   0.4301284983
         0.2331359749                  0.6789135305

7 0
S    2   1.0
         1.309756377                   0.4301284983
         0.2331359749                  0.6789135305

8 0
S    2   1.0
         1.309756377                   0.4301284983
         0.2331359749                  0.6789135305

[MO]
Sym=   A
Ene=  -0.54227
Spin=  Alpha
Occup= 1
   1         0.15368
   2         0.15368
   3         0.15368
   4         0.15368
   5         0.153541
   6         0.153541
   7         0.153541
   8         0.153541
Sym=   A
Ene=   0.57855
Spin=  Alpha
Occup= 0
   1         0.413732
   2         0.413732
   3         0.413732
   4         0.413732
   5        -0.413784
   6        -0.413784
   7        -0.413784
   8        -0.413784
Sym=   A
Ene=   0.792417
Spin=  Alpha
Occup= 0
   1         0.581969
   2         0.061264
   3        -0.061264
   4        -0.581969
   5         0.581884
   6         0.061255
   7        -0.061255
   8        -0.581884
Sym=   A
Ene=   0.792417
Spin=  Alpha
Occup= 0
   1         0.061264
   2        -0.581969
   3         0.581969
   4        -0.061264
   5         0.061255
   6        -0.581884
   7         0.581884
   8        -0.061255
Sym=   A
Ene=   2.072928
Spin=  Alpha
Occup= 0
   1         1.026735
   2         0.752436
   3        -0.752436
   4        -1.026735
   5        -1.026767
   6        -0.75246
   7         0.75246
   8         1.026767
Sym=   A
Ene=   2.072928
Spin=  Alpha
Occup= 0
   1         0.752436
   2        -1.026735
   3         1.026735
   4        -0.752436
   5        -0.75246
   6         1.026767
   7        -1.026767
   8         0.75246
Sym=   A
Ene=   2.181013
Spin=  Alpha
Occup= 0
   1         0.900132
   2        -0.900132
   3        -0.900132
   4         0.900132
   5         0.900088
   6        -0.900088
   7        -0.900088
   8         0.900088
Sym=   A
Ene=   3.694511
Spin=  Alpha
Occup= 0
   1         1.593804
   2        -1.593804
   3        -1.593804
   4         1.593804
   5        -1.593829
   6         1.593829
   7         1.593829
   8        -1.593829
Sym=   A
Ene=  -0.54227
Spin=  Beta
Occup= 1
   1         0.153541
   2         0.153541
   3         0.153541
   4         0.153541
   5         0.15368
   6         0.15368
   7         0.15368
   8         0.15368
Sym=   A
Ene=   0.57855
Spin=  Beta
Occup= 0
   1         0.413784
   2         0.413784
   3         0.413784
   4         0.413784
   5        -0.413732
   6        -0.413732
   7        -0.413732
   8        -0.413732
Sym=   A
Ene=   0.792417
Spin=  Beta
Occup= 0
   1         0.584658
   2        -0.022708
   3         0.022708
   4        -0.584658
   5         0.584744
   6        -0.022711
   7         0.022711
   8        -0.584744
Sym=   A
Ene=   0.792417
Spin=  Beta
Occup= 0
   1         0.022708
   2         0.584658
   3        -0.584658
   4        -0.022708
   5         0.022711
   6         0.584744
   7        -0.584744
   8        -0.022711
Sym=   A
Ene=   2.072928
Spin=  Beta
Occup= 0
   1         0.860775
   2         0.937824
   3        -0.937824
   4        -0.860775
   5        -0.860748
   6        -0.937794
   7         0.937794
   8         0.860748
Sym=   A
Ene=   2.072928
Spin=  Beta
Occup= 0
   1         0.937824
   2        -0.860775
   3         0.860775
   4        -0.937824
   5        -0.937794
   6         0.860748
   7        -0.860748
   8         0.937794
Sym=   A
Ene=   2.181013
Spin=  Beta
Occup= 0
   1         0.900088
   2        -0.900088
   3        -0.900088
   4         0.900088
   5         0.900132
   6        -0.900132
   7        -0.900132
   8         0.900132
Sym=   A
Ene=   3.694511
Spin=  Beta
Occup= 0
   1         1.593829
   2        -1.593829
   3        -1.593829
   4         1.593829
   5        -1.593804
   6         1.593804
   7         1.593804
   8        -1.593804
