[Molden Format]
made by Quiqbox

[Atoms] (AU)
X    1    X         -0.6         -0.6         -0.6
X    2    X         -0.6         -0.6          0.6
X    3    X         -0.6          0.6         -0.6
X    4    X         -0.6          0.6          0.6
X    5    X          0.6         -0.6         -0.6
X    6    X          0.6         -0.6          0.6
X    7    X          0.6          0.6         -0.6
X    8    X          0.6          0.6          0.6
H    9    1          0.7          0.0          0.0
H    10   1         -0.7          0.0          0.0

[GTO]
1 0
S    3   1.0
         3.425250914                   0.1543289673
         0.6239137298                  0.5353281423
         0.168855404                   0.4446345422

2 0
S    3   1.0
         3.425250914                   0.1543289673
         0.6239137298                  0.5353281423
         0.168855404                   0.4446345422

3 0
S    3   1.0
         3.425250914                   0.1543289673
         0.6239137298                  0.5353281423
         0.168855404                   0.4446345422

4 0
S    3   1.0
         3.425250914                   0.1543289673
         0.6239137298                  0.5353281423
         0.168855404                   0.4446345422

5 0
S    3   1.0
         3.425250914                   0.1543289673
         0.6239137298                  0.5353281423
         0.168855404                   0.4446345422

6 0
S    3   1.0
         3.425250914                   0.1543289673
         0.6239137298                  0.5353281423
         0.168855404                   0.4446345422

7 0
S    3   1.0
         3.425250914                   0.1543289673
         0.6239137298                  0.5353281423
         0.168855404                   0.4446345422

8 0
S    3   1.0
         3.425250914                   0.1543289673
         0.6239137298                  0.5353281423
         0.168855404                   0.4446345422

[MO]
Sym=   A
Ene=  -0.534
Spin=  Alpha
Occup= 2
   1         0.154
   2         0.154
   3         0.154
   4         0.154
   5         0.154
   6         0.154
   7         0.154
   8         0.154
Sym=   A
Ene=   0.638
Spin=  Alpha
Occup= 0
   1         0.414
   2         0.414
   3         0.414
   4         0.414
   5        -0.414
   6        -0.414
   7        -0.414
   8        -0.414
Sym=   A
Ene=   0.834
Spin=  Alpha
Occup= 0
   1         0.407
   2         0.42
   3        -0.42
   4        -0.407
   5         0.407
   6         0.42
   7        -0.42
   8        -0.407
Sym=   A
Ene=   0.834
Spin=  Alpha
Occup= 0
   1         0.42
   2        -0.407
   3         0.407
   4        -0.42
   5         0.42
   6        -0.407
   7         0.407
   8        -0.42
Sym=   A
Ene=   2.186
Spin=  Alpha
Occup= 0
   1         0.854
   2        -0.953
   3         0.953
   4        -0.854
   5        -0.854
   6         0.953
   7        -0.953
   8         0.854
Sym=   A
Ene=   2.186
Spin=  Alpha
Occup= 0
   1         0.953
   2         0.854
   3        -0.854
   4        -0.953
   5        -0.953
   6        -0.854
   7         0.854
   8         0.953
Sym=   A
Ene=   2.272
Spin=  Alpha
Occup= 0
   1         0.905
   2        -0.905
   3        -0.905
   4         0.905
   5         0.905
   6        -0.905
   7        -0.905
   8         0.905
Sym=   A
Ene=   4.332
Spin=  Alpha
Occup= 0
   1         1.587
   2        -1.587
   3        -1.587
   4         1.587
   5        -1.587
   6         1.587
   7         1.587
   8        -1.587
