[Molden Format]
made by Quiqbox

[Atoms] (AU)
X    1    X           -0.60000        -0.60000        -0.60000
X    2    X           -0.60000        -0.60000         0.60000
X    3    X           -0.60000         0.60000        -0.60000
X    4    X           -0.60000         0.60000         0.60000
X    5    X            0.60000        -0.60000        -0.60000
X    6    X            0.60000        -0.60000         0.60000
X    7    X            0.60000         0.60000        -0.60000
X    8    X            0.60000         0.60000         0.60000
N    9    7            0.00000         0.00000         0.20995
H    10   1            0.00000         1.76047        -0.48982
H    11   1            1.52463        -0.88023        -0.48982
H    12   1           -1.52463        -0.88023        -0.48982

[GTO]
1 0
S    2   1.0
         1.30976         0.43013
         0.23314         0.67891

2 0
S    2   1.0
         1.30976         0.43013
         0.23314         0.67891

3 0
S    2   1.0
         1.30976         0.43013
         0.23314         0.67891

4 0
S    2   1.0
         1.30976         0.43013
         0.23314         0.67891

5 0
S    2   1.0
         1.30976         0.43013
         0.23314         0.67891

6 0
S    2   1.0
         1.30976         0.43013
         0.23314         0.67891

7 0
S    2   1.0
         1.30976         0.43013
         0.23314         0.67891

8 0
S    2   1.0
         1.30976         0.43013
         0.23314         0.67891

[MO]
Sym=   A
Ene=  -2.38791
Spin=  Alpha
Occup= 1
   1     0.04355
   2     0.25359
   3     0.05471
   4     0.25153
   5     0.06600
   6     0.24613
   7     0.06527
   8     0.21697
Sym=   A
Ene=  -0.82384
Spin=  Alpha
Occup= 1
   1     0.13546
   2     0.22629
   3     0.27382
   4     0.71601
   5    -0.62181
   6    -0.62555
   7    -0.06919
   8    -0.07822
Sym=   A
Ene=  -0.77913
Spin=  Alpha
Occup= 1
   1     0.39240
   2     0.77834
   3    -0.20993
   4    -0.16524
   5     0.00895
   6     0.19179
   7    -0.48419
   8    -0.56658
Sym=   A
Ene=  -0.62406
Spin=  Alpha
Occup= 1
   1     0.50921
   2    -0.18247
   3     0.46858
   4    -0.29579
   5     0.37936
   6    -0.47769
   7     0.34521
   8    -0.48109
Sym=   A
Ene=   0.61532
Spin=  Alpha
Occup= 1
   1     0.74825
   2     0.65819
   3     0.03659
   4    -1.47710
   5    -1.46606
   6     0.00151
   7     0.69384
   8     0.81500
Sym=   A
Ene=   1.23816
Spin=  Alpha
Occup= 0
   1     1.12899
   2    -0.26937
   3    -1.26498
   4     0.34607
   5     0.53165
   6    -1.24671
   7    -0.39545
   8     1.17746
Sym=   A
Ene=   1.24086
Spin=  Alpha
Occup= 0
   1     0.85445
   2    -1.39040
   3     0.84645
   4    -0.11854
   5    -0.37343
   6     0.96032
   7    -1.30864
   8     0.54225
Sym=   A
Ene=   2.95443
Spin=  Alpha
Occup= 0
   1     1.58428
   2    -1.52133
   3    -1.68773
   4     1.58166
   5    -1.54971
   6     1.52140
   7     1.67184
   8    -1.59928
Sym=   A
Ene=  -2.38791
Spin=  Beta
Occup= 1
   1     0.06600
   2     0.24613
   3     0.06527
   4     0.21697
   5     0.04355
   6     0.25359
   7     0.05471
   8     0.25153
Sym=   A
Ene=  -0.82384
Spin=  Beta
Occup= 1
   1     0.62180
   2     0.62555
   3     0.06918
   4     0.07821
   5    -0.13545
   6    -0.22628
   7    -0.27382
   8    -0.71601
Sym=   A
Ene=  -0.77913
Spin=  Beta
Occup= 1
   1     0.00894
   2     0.19178
   3    -0.48420
   4    -0.56658
   5     0.39240
   6     0.77834
   7    -0.20993
   8    -0.16523
Sym=   A
Ene=  -0.62405
Spin=  Beta
Occup= 1
   1     0.37936
   2    -0.47769
   3     0.34521
   4    -0.48109
   5     0.50921
   6    -0.18247
   7     0.46857
   8    -0.29580
Sym=   A
Ene=   0.61532
Spin=  Beta
Occup= 1
   1     1.46606
   2    -0.00149
   3    -0.69385
   4    -0.81500
   5    -0.74823
   6    -0.65820
   7    -0.03658
   8     1.47710
Sym=   A
Ene=   1.23816
Spin=  Beta
Occup= 0
   1     0.53176
   2    -1.24699
   3    -0.39506
   4     1.17730
   5     1.12874
   6    -0.26896
   7    -1.26523
   8     0.34610
Sym=   A
Ene=   1.24086
Spin=  Beta
Occup= 0
   1     0.37329
   2    -0.95995
   3     1.30875
   4    -0.54261
   5    -0.85479
   6     1.39047
   7    -0.84608
   8     0.11845
Sym=   A
Ene=   2.95443
Spin=  Beta
Occup= 0
   1     1.54971
   2    -1.52140
   3    -1.67184
   4     1.59928
   5    -1.58428
   6     1.52133
   7     1.68773
   8    -1.58166
