[Molden Format]
made by Quiqbox

[Atoms] (AU)
X    1    X         -0.6          -0.6          -0.6
X    2    X         -0.6          -0.6           0.6
X    3    X         -0.6           0.6          -0.6
X    4    X         -0.6           0.6           0.6
X    5    X          0.6          -0.6          -0.6
X    6    X          0.6          -0.6           0.6
X    7    X          0.6           0.6          -0.6
X    8    X          0.6           0.6           0.6
N    9    7          0.0           0.0           0.2099
H    10   1          0.0           1.7605       -0.4898
H    11   1          1.5246       -0.8802       -0.4898
H    12   1         -1.5246       -0.8802       -0.4898

[GTO]
1 0
S    3   1.0
         3.425250914                   0.1543289673
         0.6239137298                  0.5353281423
         0.168855404                   0.4446345422

2 0
S    3   1.0
         3.425250914                   0.1543289673
         0.6239137298                  0.5353281423
         0.168855404                   0.4446345422

3 0
S    3   1.0
         3.425250914                   0.1543289673
         0.6239137298                  0.5353281423
         0.168855404                   0.4446345422

4 0
S    3   1.0
         3.425250914                   0.1543289673
         0.6239137298                  0.5353281423
         0.168855404                   0.4446345422

5 0
S    3   1.0
         3.425250914                   0.1543289673
         0.6239137298                  0.5353281423
         0.168855404                   0.4446345422

6 0
S    3   1.0
         3.425250914                   0.1543289673
         0.6239137298                  0.5353281423
         0.168855404                   0.4446345422

7 0
S    3   1.0
         3.425250914                   0.1543289673
         0.6239137298                  0.5353281423
         0.168855404                   0.4446345422

8 0
S    3   1.0
         3.425250914                   0.1543289673
         0.6239137298                  0.5353281423
         0.168855404                   0.4446345422

[MO]
Sym=   A
Ene=  -2.3538
Spin=  Alpha
Occup= 1
   1         0.0538
   2         0.2475
   3         0.0638
   4         0.2415
   5         0.0762
   6         0.2372
   7         0.0757
   8         0.2076
Sym=   A
Ene=  -0.7499
Spin=  Alpha
Occup= 1
   1         0.1435
   2         0.2611
   3         0.2833
   4         0.6938
   5        -0.6165
   6        -0.6256
   7        -0.0919
   8        -0.0863
Sym=   A
Ene=  -0.711
Spin=  Alpha
Occup= 1
   1         0.3946
   2         0.7701
   3        -0.2185
   4        -0.1926
   5         0.0324
   6         0.2043
   7        -0.4885
   8        -0.5518
Sym=   A
Ene=  -0.5428
Spin=  Alpha
Occup= 1
   1         0.5161
   2        -0.1952
   3         0.4618
   4        -0.3049
   5         0.3763
   6        -0.4804
   7         0.3441
   8        -0.4792
Sym=   A
Ene=   0.7193
Spin=  Alpha
Occup= 1
   1         0.7003
   2         0.769
   3        -0.0234
   4        -1.5002
   5        -1.3897
   6        -0.1361
   7         0.7213
   8         0.8674
Sym=   A
Ene=   1.3415
Spin=  Alpha
Occup= 0
   1         0.3664
   2        -1.1137
   3         1.2977
   4        -0.3589
   5        -0.6607
   6         1.393
   7        -0.9862
   8         0.0717
Sym=   A
Ene=   1.3447
Spin=  Alpha
Occup= 0
   1         1.3641
   2        -0.8192
   3        -0.7964
   4         0.2719
   5         0.3557
   6        -0.758
   7        -0.9211
   8         1.3145
Sym=   A
Ene=   3.4084
Spin=  Alpha
Occup= 0
   1         1.607
   2        -1.5
   3        -1.688
   4         1.546
   5        -1.5782
   6         1.5033
   7         1.6736
   8        -1.5631
Sym=   A
Ene=  -2.3538
Spin=  Beta
Occup= 1
   1         0.0762
   2         0.2372
   3         0.0757
   4         0.2076
   5         0.0538
   6         0.2475
   7         0.0638
   8         0.2415
Sym=   A
Ene=  -0.7499
Spin=  Beta
Occup= 1
   1         0.6165
   2         0.6257
   3         0.0918
   4         0.0862
   5        -0.1435
   6        -0.261
   7        -0.2834
   8        -0.6939
Sym=   A
Ene=  -0.711
Spin=  Beta
Occup= 1
   1         0.0323
   2         0.2042
   3        -0.4885
   4        -0.5518
   5         0.3946
   6         0.7701
   7        -0.2185
   8        -0.1924
Sym=   A
Ene=  -0.5428
Spin=  Beta
Occup= 1
   1         0.3763
   2        -0.4804
   3         0.344
   4        -0.4792
   5         0.5161
   6        -0.1952
   7         0.4618
   8        -0.3049
Sym=   A
Ene=   0.7194
Spin=  Beta
Occup= 1
   1         1.3896
   2         0.1364
   3        -0.7216
   4        -0.8673
   5        -0.7002
   6        -0.7693
   7         0.0236
   8         1.5002
Sym=   A
Ene=   1.3415
Spin=  Beta
Occup= 0
   1         0.6623
   2        -1.3956
   3         0.9828
   4        -0.0672
   5        -0.3617
   6         1.1106
   7        -1.3005
   8         0.3602
Sym=   A
Ene=   1.3447
Spin=  Beta
Occup= 0
   1         0.3533
   2        -0.7531
   3        -0.9246
   4         1.3148
   5         1.3654
   6        -0.8231
   7        -0.7918
   8         0.2706
Sym=   A
Ene=   3.4084
Spin=  Beta
Occup= 0
   1         1.5782
   2        -1.5032
   3        -1.6736
   4         1.5631
   5        -1.607
   6         1.5
   7         1.688
   8        -1.546
