[Molden Format]
made by Quiqbox

[Atoms] (AU)
X    1    X         -0.60000        -0.60000        -0.60000
X    2    X         -0.60000        -0.60000         0.60000
X    3    X         -0.60000         0.60000        -0.60000
X    4    X         -0.60000         0.60000         0.60000
X    5    X          0.60000        -0.60000        -0.60000
X    6    X          0.60000        -0.60000         0.60000
X    7    X          0.60000         0.60000        -0.60000
X    8    X          0.60000         0.60000         0.60000
H    9    1          0.70014         0.00000         0.00000
H    10   1         -0.70014         0.00000         0.00000

[GTO]
1 0
S    2   1.0
         1.309756377               0.4301284983
         0.2331359749              0.6789135305

2 0
S    2   1.0
         1.309756377               0.4301284983
         0.2331359749              0.6789135305

3 0
S    2   1.0
         1.309756377               0.4301284983
         0.2331359749              0.6789135305

4 0
S    2   1.0
         1.309756377               0.4301284983
         0.2331359749              0.6789135305

5 0
S    2   1.0
         1.309756377               0.4301284983
         0.2331359749              0.6789135305

6 0
S    2   1.0
         1.309756377               0.4301284983
         0.2331359749              0.6789135305

7 0
S    2   1.0
         1.309756377               0.4301284983
         0.2331359749              0.6789135305

8 0
S    2   1.0
         1.309756377               0.4301284983
         0.2331359749              0.6789135305

[MO]
Sym=   A
Ene=  -0.54227
Spin=  Alpha
Occup= 1
   1         0.15367
   2         0.15367
   3         0.15370
   4         0.15370
   5         0.15352
   6         0.15352
   7         0.15355
   8         0.15355
Sym=   A
Ene=   0.57855
Spin=  Alpha
Occup= 0
   1         0.41370
   2         0.41370
   3         0.41376
   4         0.41376
   5        -0.41378
   6        -0.41378
   7        -0.41379
   8        -0.41379
Sym=   A
Ene=   0.79242
Spin=  Alpha
Occup= 0
   1         0.41372
   2        -0.41372
   3         0.41376
   4        -0.41376
   5         0.41376
   6        -0.41376
   7         0.41380
   8        -0.41380
Sym=   A
Ene=   0.79242
Spin=  Alpha
Occup= 0
   1         0.41376
   2         0.41376
   3        -0.41372
   4        -0.41372
   5         0.41377
   6         0.41377
   7        -0.41378
   8        -0.41378
Sym=   A
Ene=   2.07293
Spin=  Alpha
Occup= 0
   1         0.90013
   2         0.90013
   3        -0.90011
   4        -0.90011
   5        -0.90011
   6        -0.90011
   7         0.90009
   8         0.90009
Sym=   A
Ene=   2.07293
Spin=  Alpha
Occup= 0
   1         0.90010
   2        -0.90010
   3         0.90014
   4        -0.90014
   5        -0.90007
   6         0.90007
   7        -0.90013
   8         0.90013
Sym=   A
Ene=   2.18101
Spin=  Alpha
Occup= 0
   1         0.90005
   2        -0.90005
   3        -0.90004
   4         0.90004
   5         0.90019
   6        -0.90019
   7        -0.90016
   8         0.90016
Sym=   A
Ene=   3.69451
Spin=  Alpha
Occup= 0
   1         1.59387
   2        -1.59387
   3        -1.59384
   4         1.59384
   5        -1.59379
   6         1.59379
   7         1.59377
   8        -1.59377
Sym=   A
Ene=  -0.54227
Spin=  Beta
Occup= 1
   1         0.15359
   2         0.15359
   3         0.15358
   4         0.15358
   5         0.15365
   6         0.15365
   7         0.15363
   8         0.15363
Sym=   A
Ene=   0.57855
Spin=  Beta
Occup= 0
   1         0.41378
   2         0.41378
   3         0.41376
   4         0.41376
   5        -0.41375
   6        -0.41375
   7        -0.41374
   8        -0.41374
Sym=   A
Ene=   0.79242
Spin=  Beta
Occup= 0
   1         0.41371
   2         0.41371
   3        -0.41373
   4        -0.41373
   5         0.41380
   6         0.41380
   7        -0.41379
   8        -0.41379
Sym=   A
Ene=   0.79242
Spin=  Beta
Occup= 0
   1         0.41373
   2        -0.41373
   3         0.41371
   4        -0.41371
   5         0.41380
   6        -0.41380
   7         0.41379
   8        -0.41379
Sym=   A
Ene=   2.07293
Spin=  Beta
Occup= 0
   1         0.90012
   2         0.90012
   3        -0.90013
   4        -0.90013
   5        -0.90009
   6        -0.90009
   7         0.90010
   8         0.90010
Sym=   A
Ene=   2.07293
Spin=  Beta
Occup= 0
   1         0.90014
   2        -0.90014
   3         0.90011
   4        -0.90011
   5        -0.90010
   6         0.90010
   7        -0.90009
   8         0.90009
Sym=   A
Ene=   2.18101
Spin=  Beta
Occup= 0
   1         0.90005
   2        -0.90005
   3        -0.90007
   4         0.90007
   5         0.90016
   6        -0.90016
   7        -0.90016
   8         0.90016
Sym=   A
Ene=   3.69451
Spin=  Beta
Occup= 0
   1         1.59384
   2        -1.59384
   3        -1.59385
   4         1.59385
   5        -1.59378
   6         1.59378
   7         1.59379
   8        -1.59379
