[Molden Format]
made by Quiqbox

[Atoms] (AU)
X    1    X         -0.6            -0.6            -0.6
X    2    X         -0.6            -0.6             0.6
X    3    X         -0.6             0.6            -0.6
X    4    X         -0.6             0.6             0.6
X    5    X          0.6            -0.6            -0.6
X    6    X          0.6            -0.6             0.6
X    7    X          0.6             0.6            -0.6
X    8    X          0.6             0.6             0.6
H    9    1          0.866439        0.0             0.0
F    10   9         -0.866439        0.0             0.0

[GTO]
1 0
S    3   1.0
         3.425250914                   0.1543289673
         0.6239137298                  0.5353281423
         0.168855404                   0.4446345422

2 0
S    3   1.0
         3.425250914                   0.1543289673
         0.6239137298                  0.5353281423
         0.168855404                   0.4446345422

3 0
S    3   1.0
         3.425250914                   0.1543289673
         0.6239137298                  0.5353281423
         0.168855404                   0.4446345422

4 0
S    3   1.0
         3.425250914                   0.1543289673
         0.6239137298                  0.5353281423
         0.168855404                   0.4446345422

5 0
S    3   1.0
         3.425250914                   0.1543289673
         0.6239137298                  0.5353281423
         0.168855404                   0.4446345422

6 0
S    3   1.0
         3.425250914                   0.1543289673
         0.6239137298                  0.5353281423
         0.168855404                   0.4446345422

7 0
S    3   1.0
         3.425250914                   0.1543289673
         0.6239137298                  0.5353281423
         0.168855404                   0.4446345422

8 0
S    3   1.0
         3.425250914                   0.1543289673
         0.6239137298                  0.5353281423
         0.168855404                   0.4446345422

[MO]
Sym=   A
Ene=  -3.568364
Spin=  Alpha
Occup= 2
   1         0.385858
   2         0.385858
   3         0.385858
   4         0.385858
   5        -0.152741
   6        -0.152742
   7        -0.152742
   8        -0.152742
Sym=   A
Ene=  -1.104964
Spin=  Alpha
Occup= 2
   1         1.165527
   2        -0.001441
   3         0.001442
   4        -1.165527
   5        -0.166425
   6         0.000206
   7        -0.000206
   8         0.166424
Sym=   A
Ene=  -1.104964
Spin=  Alpha
Occup= 2
   1         0.001442
   2         1.165527
   3        -1.165527
   4        -0.001442
   5        -0.000206
   6        -0.166425
   7         0.166425
   8         0.000206
Sym=   A
Ene=  -0.366253
Spin=  Alpha
Occup= 2
   1         0.213986
   2         0.213986
   3         0.213986
   4         0.213986
   5        -0.413941
   6        -0.413941
   7        -0.41394
   8        -0.41394
Sym=   A
Ene=   0.615443
Spin=  Alpha
Occup= 2
   1         1.456181
   2        -1.456178
   3        -1.456177
   4         1.456174
   5         0.208193
   6        -0.208198
   7        -0.208199
   8         0.208205
Sym=   A
Ene=   1.519124
Spin=  Alpha
Occup= 0
   1         0.788678
   2         0.001202
   3        -0.001189
   4        -0.788691
   5        -1.397419
   6        -0.002116
   7         0.002119
   8         1.397417
Sym=   A
Ene=   1.519124
Spin=  Alpha
Occup= 0
   1         0.001195
   2        -0.788684
   3         0.788685
   4        -0.001196
   5        -0.002118
   6         1.397418
   7        -1.397418
   8         0.002118
Sym=   A
Ene=   3.583376
Spin=  Alpha
Occup= 0
   1         1.103569
   2        -1.103569
   3        -1.103569
   4         1.103569
   5        -1.815205
   6         1.815205
   7         1.815205
   8        -1.815206
