[Molden Format]
made by Quiqbox

[Atoms] (AU)
H    1    1           -1.52463        -0.88023        -0.48982
N    2    7            0.00000         0.00000         0.20995
H    3    1            0.00000         1.76047        -0.48982
H    4    1            1.52463        -0.88023        -0.48982

[GTO]
1 0
S    2   1.0
         1.30976         0.43013
         0.23314         0.67891

2 0
S    2   1.0
        37.89648         0.43013
         6.74555         0.67891
S    2   1.0
         1.46109         0.04947
         0.37057         0.96378
P    2   1.0
         1.46109         0.51154
         0.37057         0.61282

3 0
S    2   1.0
         1.30976         0.43013
         0.23314         0.67891

4 0
S    2   1.0
         1.30976         0.43013
         0.23314         0.67891

[MO]
Sym=   A
Ene=  -14.81454
Spin=  Alpha
Occup= 1
   1    -0.01513
   2     0.98412
   3     0.06737
   4     1.2e-10
   5     2.1e-07
   6    -0.00913
   7    -0.01513
   8    -0.01513
Sym=   A
Ene=  -1.08101
Spin=  Alpha
Occup= 1
   1    -0.17154
   2     0.24874
   3    -0.71473
   4    -1.9e-08
   5    -3.2e-06
   6     0.13472
   7    -0.17154
   8    -0.17154
Sym=   A
Ene=  -0.56846
Spin=  Alpha
Occup= 1
   1     0.43806
   2     8.3e-09
   3    -4.4e-08
   4    -0.58013
   5     0.00080
   6    -2.3e-08
   7     0.00070
   8    -0.43876
Sym=   A
Ene=  -0.56846
Spin=  Alpha
Occup= 1
   1    -0.25372
   2     1.8e-06
   3    -7.6e-06
   4     0.00080
   5     0.58013
   6    -2.1e-06
   7     0.50623
   8    -0.25251
Sym=   A
Ene=  -0.32901
Spin=  Alpha
Occup= 1
   1     0.13084
   2     0.11226
   3    -0.47224
   4     6.7e-09
   5    -2.8e-06
   6    -0.88603
   7     0.13084
   8     0.13084
Sym=   A
Ene=   0.66561
Spin=  Alpha
Occup= 0
   1     0.72388
   2     0.24174
   3    -1.30827
   4     8.3e-09
   5     5.0e-05
   6     0.57688
   7     0.72381
   8     0.72388
Sym=   A
Ene=   0.78386
Spin=  Alpha
Occup= 0
   1     0.86062
   2     6.4e-09
   3    -2.6e-08
   4     1.06431
   5    -0.00012
   6    -3.6e-09
   7     0.00011
   8    -0.86073
Sym=   A
Ene=   0.78387
Spin=  Alpha
Occup= 0
   1    -0.49697
   2     1.3e-05
   3    -7.7e-05
   4    -0.00012
   5    -1.06431
   6     3.3e-05
   7     0.99387
   8    -0.49678
Sym=   A
Ene=  -14.81454
Spin=  Beta
Occup= 1
   1    -0.01513
   2     0.98412
   3     0.06737
   4     3.6e-11
   5     2.1e-07
   6    -0.00913
   7    -0.01513
   8    -0.01513
Sym=   A
Ene=  -1.08101
Spin=  Beta
Occup= 1
   1    -0.17154
   2     0.24874
   3    -0.71472
   4     1.0e-08
   5    -3.2e-06
   6     0.13472
   7    -0.17154
   8    -0.17154
Sym=   A
Ene=  -0.56846
Spin=  Beta
Occup= 1
   1    -0.43774
   2     7.6e-09
   3    -3.8e-08
   4     0.58013
   5    -0.00152
   6    -3.9e-08
   7    -0.00133
   8     0.43907
Sym=   A
Ene=  -0.56846
Spin=  Beta
Occup= 1
   1    -0.25426
   2     1.8e-06
   3    -7.5e-06
   4     0.00152
   5     0.58013
   6    -2.1e-06
   7     0.50623
   8    -0.25197
Sym=   A
Ene=  -0.32901
Spin=  Beta
Occup= 1
   1     0.13084
   2     0.11226
   3    -0.47224
   4     8.3e-09
   5    -2.8e-06
   6    -0.88603
   7     0.13084
   8     0.13084
Sym=   A
Ene=   0.66561
Spin=  Beta
Occup= 0
   1     0.72388
   2     0.24174
   3    -1.30827
   4    -7.8e-08
   5     5.1e-05
   6     0.57688
   7     0.72381
   8     0.72388
Sym=   A
Ene=   0.78386
Spin=  Beta
Occup= 0
   1     0.86089
   2     1.9e-09
   3    -2.1e-08
   4     1.06431
   5     0.00046
   6     5.7e-08
   7    -0.00043
   8    -0.86046
Sym=   A
Ene=   0.78387
Spin=  Beta
Occup= 0
   1    -0.49650
   2     1.3e-05
   3    -7.7e-05
   4     0.00046
   5    -1.06431
   6     3.3e-05
   7     0.99387
   8    -0.49724
