[Molden Format]
made by Quiqbox

[Atoms] (AU)
F    1    9         -0.866439        0.0             0.0
H    2    1          0.866439        0.0             0.0

[GTO]
1 0
S    3   1.0
       166.679134                      0.1543289673
        30.36081233                    0.5353281423
         8.216820672                   0.4446345422
S    3   1.0
         6.464803249                  -0.09996722919
         1.502281245                   0.3995128261
         0.4885884864                  0.7001154689
P    3   1.0
         6.464803249                   0.155916275
         1.502281245                   0.6076837186
         0.4885884864                  0.3919573931

2 0
S    3   1.0
         3.425250914                   0.1543289673
         0.6239137298                  0.5353281423
         0.168855404                   0.4446345422

[MO]
Sym=   A
Ene=  -25.899959
Spin=  Alpha
Occup= 2
   1        -0.994698
   2        -0.02264
   3        -0.00296
   4         0.0
   5         0.0
   6         0.005784
Sym=   A
Ene=  -1.471157
Spin=  Alpha
Occup= 2
   1        -0.249184
   2         0.936202
   3         0.089887
   4         0.0
   5         0.0
   6         0.15851
Sym=   A
Ene=  -0.585187
Spin=  Alpha
Occup= 2
   1         0.082494
   2        -0.434693
   3         0.70216
   4         0.0
   5         0.0
   6         0.521327
Sym=   A
Ene=  -0.464115
Spin=  Alpha
Occup= 2
   1         0.0
   2         0.0
   3         0.0
   4         1.0
   5         0.0
   6         0.0
Sym=   A
Ene=  -0.464115
Spin=  Alpha
Occup= 2
   1         0.0
   2         0.0
   3         0.0
   4         0.0
   5         1.0
   6         0.0
Sym=   A
Ene=   0.629013
Spin=  Alpha
Occup= 0
   1         0.0849
   2        -0.559523
   3        -0.824683
   4         0.0
   5         0.0
   6         1.090331
