[Molden Format]
made by Quiqbox

[Atoms] (AU)
X    1    X         -0.60000       -0.60000       -0.60000
X    2    X         -0.60000       -0.60000        0.60000
X    3    X         -0.60000        0.60000       -0.60000
X    4    X         -0.60000        0.60000        0.60000
X    5    X          0.60000       -0.60000       -0.60000
X    6    X          0.60000       -0.60000        0.60000
X    7    X          0.60000        0.60000       -0.60000
X    8    X          0.60000        0.60000        0.60000
N    9    7          0.00000        0.00000        0.20995
H    10   1          0.00000        1.76047       -0.48982
H    11   1          1.52463       -0.88023       -0.48982
H    12   1         -1.52463       -0.88023       -0.48982

[GTO]
1 0
S    3   1.0
         3.425250914                   0.1543289673
         0.6239137298                  0.5353281423
         0.168855404                   0.4446345422

2 0
S    3   1.0
         3.425250914                   0.1543289673
         0.6239137298                  0.5353281423
         0.168855404                   0.4446345422

3 0
S    3   1.0
         3.425250914                   0.1543289673
         0.6239137298                  0.5353281423
         0.168855404                   0.4446345422

4 0
S    3   1.0
         3.425250914                   0.1543289673
         0.6239137298                  0.5353281423
         0.168855404                   0.4446345422

5 0
S    3   1.0
         3.425250914                   0.1543289673
         0.6239137298                  0.5353281423
         0.168855404                   0.4446345422

6 0
S    3   1.0
         3.425250914                   0.1543289673
         0.6239137298                  0.5353281423
         0.168855404                   0.4446345422

7 0
S    3   1.0
         3.425250914                   0.1543289673
         0.6239137298                  0.5353281423
         0.168855404                   0.4446345422

8 0
S    3   1.0
         3.425250914                   0.1543289673
         0.6239137298                  0.5353281423
         0.168855404                   0.4446345422

[MO]
Sym=   A
Ene=  -2.35146
Spin=  Alpha
Occup= 2
   1         0.06542
   2         0.24345
   3         0.07184
   4         0.22134
   5         0.06542
   6         0.24345
   7         0.07184
   8         0.22134
Sym=   A
Ene=  -0.73489
Spin=  Alpha
Occup= 2
   1         0.42945
   2         0.54122
   3         0.23847
   4         0.43365
   5        -0.42944
   6        -0.54122
   7        -0.23848
   8        -0.43366
Sym=   A
Ene=  -0.71807
Spin=  Alpha
Occup= 2
   1         0.30626
   2         0.51001
   3        -0.35594
   4        -0.47318
   5         0.30626
   6         0.51002
   7        -0.35594
   8        -0.47317
Sym=   A
Ene=  -0.54978
Spin=  Alpha
Occup= 2
   1         0.45695
   2        -0.35049
   3         0.41334
   4        -0.39871
   5         0.45695
   6        -0.35049
   7         0.41334
   8        -0.39870
Sym=   A
Ene=   0.74168
Spin=  Alpha
Occup= 2
   1         1.11428
   2         0.50537
   3        -0.41862
   4        -1.26878
   5        -1.11429
   6        -0.50536
   7         0.41863
   8         1.26877
Sym=   A
Ene=   1.32467
Spin=  Alpha
Occup= 0
   1         0.93705
   2        -0.86179
   3        -0.93926
   4         0.86779
   5         0.93703
   6        -0.86179
   7        -0.93926
   8         0.86780
Sym=   A
Ene=   1.33781
Spin=  Alpha
Occup= 0
   1         0.61019
   2        -1.23300
   3         1.12845
   4        -0.32420
   5        -0.61020
   6         1.23300
   7        -1.12845
   8         0.32419
Sym=   A
Ene=   3.40646
Spin=  Alpha
Occup= 0
   1         1.59065
   2        -1.50331
   3        -1.68019
   4         1.55744
   5        -1.59065
   6         1.50331
   7         1.68019
   8        -1.55744
