[Molden Format]
made by Quiqbox

[Atoms] (AU)
X    1    X         -0.60000       -0.60000       -0.60000
X    2    X         -0.60000       -0.60000        0.60000
X    3    X         -0.60000        0.60000       -0.60000
X    4    X         -0.60000        0.60000        0.60000
X    5    X          0.60000       -0.60000       -0.60000
X    6    X          0.60000       -0.60000        0.60000
X    7    X          0.60000        0.60000       -0.60000
X    8    X          0.60000        0.60000        0.60000
N    9    7          0.00000        0.00000        0.20995
H    10   1          0.00000        1.76047       -0.48982
H    11   1          1.52463       -0.88023       -0.48982
H    12   1         -1.52463       -0.88023       -0.48982

[GTO]
1 0
S    2   1.0
         1.309756377                   0.4301284983
         0.2331359749                  0.6789135305

2 0
S    2   1.0
         1.309756377                   0.4301284983
         0.2331359749                  0.6789135305

3 0
S    2   1.0
         1.309756377                   0.4301284983
         0.2331359749                  0.6789135305

4 0
S    2   1.0
         1.309756377                   0.4301284983
         0.2331359749                  0.6789135305

5 0
S    2   1.0
         1.309756377                   0.4301284983
         0.2331359749                  0.6789135305

6 0
S    2   1.0
         1.309756377                   0.4301284983
         0.2331359749                  0.6789135305

7 0
S    2   1.0
         1.309756377                   0.4301284983
         0.2331359749                  0.6789135305

8 0
S    2   1.0
         1.309756377                   0.4301284983
         0.2331359749                  0.6789135305

[MO]
Sym=   A
Ene=  -2.38572
Spin=  Alpha
Occup= 2
   1         0.05460
   2         0.25130
   3         0.06232
   4         0.23102
   5         0.05460
   6         0.25130
   7         0.06232
   8         0.23102
Sym=   A
Ene=  -0.80605
Spin=  Alpha
Occup= 2
   1         0.43121
   2         0.53339
   3         0.22724
   4         0.45083
   5        -0.43120
   6        -0.53338
   7        -0.22725
   8        -0.45085
Sym=   A
Ene=  -0.78874
Spin=  Alpha
Occup= 2
   1         0.30253
   2         0.51403
   3        -0.34944
   4        -0.47923
   5         0.30254
   6         0.51404
   7        -0.34943
   8        -0.47922
Sym=   A
Ene=  -0.63102
Spin=  Alpha
Occup= 2
   1         0.45417
   2        -0.34330
   3         0.41950
   4        -0.39515
   5         0.45417
   6        -0.34330
   7         0.41950
   8        -0.39515
Sym=   A
Ene=   0.63950
Spin=  Alpha
Occup= 2
   1         1.19230
   2         0.37398
   3        -0.37159
   4        -1.24086
   5        -1.19231
   6        -0.37397
   7         0.37160
   8         1.24085
Sym=   A
Ene=   1.21680
Spin=  Alpha
Occup= 0
   1         0.93564
   2        -0.85495
   3        -0.93500
   4         0.85849
   5         0.93562
   6        -0.85495
   7        -0.93500
   8         0.85851
Sym=   A
Ene=   1.23647
Spin=  Alpha
Occup= 0
   1         0.52461
   2        -1.25960
   3         1.15034
   4        -0.22381
   5        -0.52461
   6         1.25960
   7        -1.15034
   8         0.22381
Sym=   A
Ene=   2.95249
Spin=  Alpha
Occup= 0
   1         1.56496
   2        -1.52345
   3        -1.67894
   4         1.59335
   5        -1.56496
   6         1.52345
   7         1.67894
   8        -1.59335
