[Molden Format]
made by Quiqbox

[Atoms] (AU)
F    1    9         -0.86644         0.00000         0.00000
H    2    1          0.86644         0.00000         0.00000

[GTO]
1 0
S    3   1.0
       166.67913         0.15433
        30.36081         0.53533
         8.21682         0.44463
S    3   1.0
         6.46480        -0.09997
         1.50228         0.39951
         0.48859         0.70012
P    3   1.0
         6.46480         0.15592
         1.50228         0.60768
         0.48859         0.39196

2 0
S    3   1.0
         3.42525         0.15433
         0.62391         0.53533
         0.16886         0.44463

[MO]
Sym=   A
Ene=  -25.89624
Spin=  Alpha
Occup= 1
   1        -0.99469
   2        -0.02265
   3        -0.00296
   4         0.00000
   5         0.00000
   6         0.00579
Sym=   A
Ene=  -1.47079
Spin=  Alpha
Occup= 1
   1        -0.24956
   2         0.93836
   3         0.09027
   4         0.00000
   5         0.00000
   6         0.15497
Sym=   A
Ene=  -0.58602
Spin=  Alpha
Occup= 1
   1         0.08110
   2        -0.42691
   3         0.71089
   4         0.00000
   5         0.00000
   6         0.51028
Sym=   A
Ene=  -0.46243
Spin=  Alpha
Occup= 1
   1         0.00000
   2         0.00000
   3         0.00000
   4         1.00000
   5         0.00000
   6         0.00000
Sym=   A
Ene=  -0.46243
Spin=  Alpha
Occup= 1
   1         0.00000
   2         0.00000
   3         0.00000
   4         0.00000
   5         1.00000
   6         0.00000
Sym=   A
Ene=   0.62872
Spin=  Alpha
Occup= 0
   1         0.08519
   2        -0.56189
   3        -0.81713
   4         0.00000
   5         0.00000
   6         1.09605
Sym=   A
Ene=  -25.89580
Spin=  Beta
Occup= 1
   1        -0.99470
   2        -0.02263
   3        -0.00296
   4         0.00000
   5         0.00000
   6         0.00578
Sym=   A
Ene=  -1.46856
Spin=  Beta
Occup= 1
   1        -0.24900
   2         0.93515
   3         0.08966
   4         0.00000
   5         0.00000
   6         0.16023
Sym=   A
Ene=  -0.58269
Spin=  Beta
Occup= 1
   1         0.08320
   2        -0.43864
   3         0.69760
   4         0.00000
   5         0.00000
   6         0.52706
Sym=   A
Ene=  -0.46171
Spin=  Beta
Occup= 1
   1         0.00000
   2         0.00000
   3         0.00000
   4         0.00000
   5         1.00000
   6         0.00000
Sym=   A
Ene=  -0.46171
Spin=  Beta
Occup= 1
   1         0.00000
   2         0.00000
   3         0.00000
   4         1.00000
   5         0.00000
   6         0.00000
Sym=   A
Ene=   0.62964
Spin=  Beta
Occup= 0
   1         0.08473
   2        -0.55820
   3        -0.82857
   4         0.00000
   5         0.00000
   6         1.08732
