[Molden Format]
made by Quiqbox

[Atoms] (AU)
X    1    X           -0.60000        -0.60000        -0.60000
X    2    X           -0.60000        -0.60000         0.60000
X    3    X           -0.60000         0.60000        -0.60000
X    4    X           -0.60000         0.60000         0.60000
X    5    X            0.60000        -0.60000        -0.60000
X    6    X            0.60000        -0.60000         0.60000
X    7    X            0.60000         0.60000        -0.60000
X    8    X            0.60000         0.60000         0.60000
H    9    1            0.86644         0.00000         0.00000
F    10   9           -0.86644         0.00000         0.00000

[GTO]
1 0
S    3   1.0
         3.42525         0.15433
         0.62391         0.53533
         0.16886         0.44463

2 0
S    3   1.0
         3.42525         0.15433
         0.62391         0.53533
         0.16886         0.44463

3 0
S    3   1.0
         3.42525         0.15433
         0.62391         0.53533
         0.16886         0.44463

4 0
S    3   1.0
         3.42525         0.15433
         0.62391         0.53533
         0.16886         0.44463

5 0
S    3   1.0
         3.42525         0.15433
         0.62391         0.53533
         0.16886         0.44463

6 0
S    3   1.0
         3.42525         0.15433
         0.62391         0.53533
         0.16886         0.44463

7 0
S    3   1.0
         3.42525         0.15433
         0.62391         0.53533
         0.16886         0.44463

8 0
S    3   1.0
         3.42525         0.15433
         0.62391         0.53533
         0.16886         0.44463

[MO]
Sym=   A
Ene=  -3.56838
Spin=  Alpha
Occup= 1
   1     0.38586
   2     0.38586
   3     0.38586
   4     0.38586
   5    -0.15274
   6    -0.15274
   7    -0.15274
   8    -0.15274
Sym=   A
Ene=  -1.10497
Spin=  Alpha
Occup= 1
   1     1.16552
   2     0.00233
   3    -0.00233
   4    -1.16552
   5    -0.16642
   6    -0.00033
   7     0.00033
   8     0.16642
Sym=   A
Ene=  -1.10497
Spin=  Alpha
Occup= 1
   1     0.00233
   2    -1.16552
   3     1.16552
   4    -0.00233
   5    -0.00033
   6     0.16642
   7    -0.16642
   8     0.00033
Sym=   A
Ene=  -0.36624
Spin=  Alpha
Occup= 1
   1     0.21399
   2     0.21399
   3     0.21399
   4     0.21399
   5    -0.41394
   6    -0.41394
   7    -0.41394
   8    -0.41394
Sym=   A
Ene=   0.61544
Spin=  Alpha
Occup= 1
   1     1.45618
   2    -1.45618
   3    -1.45618
   4     1.45618
   5     0.20820
   6    -0.20820
   7    -0.20820
   8     0.20820
Sym=   A
Ene=   1.51913
Spin=  Alpha
Occup= 0
   1     0.21307
   2     0.75936
   3    -0.75936
   4    -0.21307
   5    -0.37752
   6    -1.34546
   7     1.34546
   8     0.37752
Sym=   A
Ene=   1.51913
Spin=  Alpha
Occup= 0
   1     0.75936
   2    -0.21307
   3     0.21307
   4    -0.75936
   5    -1.34546
   6     0.37752
   7    -0.37752
   8     1.34546
Sym=   A
Ene=   3.58338
Spin=  Alpha
Occup= 0
   1     1.10357
   2    -1.10357
   3    -1.10357
   4     1.10357
   5    -1.81520
   6     1.81520
   7     1.81520
   8    -1.81520
Sym=   A
Ene=  -3.56838
Spin=  Beta
Occup= 1
   1     0.38586
   2     0.38586
   3     0.38586
   4     0.38586
   5    -0.15274
   6    -0.15274
   7    -0.15274
   8    -0.15274
Sym=   A
Ene=  -1.10497
Spin=  Beta
Occup= 1
   1     0.12188
   2    -1.15914
   3     1.15914
   4    -0.12188
   5    -0.01740
   6     0.16551
   7    -0.16551
   8     0.01740
Sym=   A
Ene=  -1.10497
Spin=  Beta
Occup= 1
   1     1.15914
   2     0.12188
   3    -0.12188
   4    -1.15914
   5    -0.16551
   6    -0.01740
   7     0.01740
   8     0.16551
Sym=   A
Ene=  -0.36624
Spin=  Beta
Occup= 1
   1     0.21399
   2     0.21399
   3     0.21399
   4     0.21399
   5    -0.41394
   6    -0.41394
   7    -0.41394
   8    -0.41394
Sym=   A
Ene=   0.61544
Spin=  Beta
Occup= 1
   1     1.45618
   2    -1.45618
   3    -1.45618
   4     1.45618
   5     0.20820
   6    -0.20820
   7    -0.20820
   8     0.20820
Sym=   A
Ene=   1.51913
Spin=  Beta
Occup= 0
   1     0.08918
   2    -0.78363
   3     0.78363
   4    -0.08918
   5    -0.15801
   6     1.38846
   7    -1.38846
   8     0.15801
Sym=   A
Ene=   1.51913
Spin=  Beta
Occup= 0
   1     0.78363
   2     0.08918
   3    -0.08918
   4    -0.78363
   5    -1.38846
   6    -0.15801
   7     0.15801
   8     1.38846
Sym=   A
Ene=   3.58338
Spin=  Beta
Occup= 0
   1     1.10357
   2    -1.10357
   3    -1.10357
   4     1.10357
   5    -1.81520
   6     1.81520
   7     1.81520
   8    -1.81520
