[Molden Format]
made by Quiqbox

[Atoms] (AU)
X    1    X         -0.60000        -0.60000        -0.60000
X    2    X         -0.60000        -0.60000         0.60000
X    3    X         -0.60000         0.60000        -0.60000
X    4    X         -0.60000         0.60000         0.60000
X    5    X          0.60000        -0.60000        -0.60000
X    6    X          0.60000        -0.60000         0.60000
X    7    X          0.60000         0.60000        -0.60000
X    8    X          0.60000         0.60000         0.60000
H    9    1          0.86644         0.00000         0.00000
F    10   9         -0.86644         0.00000         0.00000

[GTO]
1 0
S    2   1.0
         1.30976         0.43013
         0.23314         0.67891

2 0
S    2   1.0
         1.30976         0.43013
         0.23314         0.67891

3 0
S    2   1.0
         1.30976         0.43013
         0.23314         0.67891

4 0
S    2   1.0
         1.30976         0.43013
         0.23314         0.67891

5 0
S    2   1.0
         1.30976         0.43013
         0.23314         0.67891

6 0
S    2   1.0
         1.30976         0.43013
         0.23314         0.67891

7 0
S    2   1.0
         1.30976         0.43013
         0.23314         0.67891

8 0
S    2   1.0
         1.30976         0.43013
         0.23314         0.67891

[MO]
Sym=   A
Ene=  -3.66158
Spin=  Alpha
Occup= 2
   1         0.39001
   2         0.39001
   3         0.39001
   4         0.39001
   5        -0.16070
   6        -0.16070
   7        -0.16070
   8        -0.16070
Sym=   A
Ene=  -1.19890
Spin=  Alpha
Occup= 2
   1         0.02563
   2         1.18325
   3        -1.18325
   4        -0.02563
   5        -0.00437
   6        -0.20156
   7         0.20156
   8         0.00437
Sym=   A
Ene=  -1.19890
Spin=  Alpha
Occup= 2
   1         1.18325
   2        -0.02563
   3         0.02563
   4        -1.18325
   5        -0.20156
   6         0.00437
   7        -0.00437
   8         0.20156
Sym=   A
Ene=  -0.42078
Spin=  Alpha
Occup= 2
   1         0.20660
   2         0.20660
   3         0.20660
   4         0.20660
   5        -0.41106
   6        -0.41106
   7        -0.41106
   8        -0.41106
Sym=   A
Ene=   0.58528
Spin=  Alpha
Occup= 2
   1         1.48929
   2        -1.48929
   3        -1.48929
   4         1.48929
   5         0.14231
   6        -0.14231
   7        -0.14231
   8         0.14231
Sym=   A
Ene=   1.38531
Spin=  Alpha
Occup= 0
   1         0.74897
   2        -0.03315
   3         0.03315
   4        -0.74897
   5        -1.38506
   6         0.06130
   7        -0.06130
   8         1.38506
Sym=   A
Ene=   1.38531
Spin=  Alpha
Occup= 0
   1         0.03315
   2         0.74897
   3        -0.74897
   4        -0.03315
   5        -0.06130
   6        -1.38506
   7         1.38506
   8         0.06130
Sym=   A
Ene=   3.11664
Spin=  Alpha
Occup= 0
   1         1.06418
   2        -1.06418
   3        -1.06418
   4         1.06418
   5        -1.82488
   6         1.82488
   7         1.82488
   8        -1.82488
