[Molden Format]
made by Quiqbox

[Atoms] (AU)
X    1    X         -0.6         -0.6         -0.6
X    2    X         -0.6         -0.6          0.6
X    3    X         -0.6          0.6         -0.6
X    4    X         -0.6          0.6          0.6
X    5    X          0.6         -0.6         -0.6
X    6    X          0.6         -0.6          0.6
X    7    X          0.6          0.6         -0.6
X    8    X          0.6          0.6          0.6
N    9    7          0.0          0.0          0.21
H    10   1          0.0          1.76        -0.49
H    11   1          1.525       -0.88        -0.49
H    12   1         -1.525       -0.88        -0.49

[GTO]
1 0
S    3   1.0
         3.425250914                   0.1543289673
         0.6239137298                  0.5353281423
         0.168855404                   0.4446345422

2 0
S    3   1.0
         3.425250914                   0.1543289673
         0.6239137298                  0.5353281423
         0.168855404                   0.4446345422

3 0
S    3   1.0
         3.425250914                   0.1543289673
         0.6239137298                  0.5353281423
         0.168855404                   0.4446345422

4 0
S    3   1.0
         3.425250914                   0.1543289673
         0.6239137298                  0.5353281423
         0.168855404                   0.4446345422

5 0
S    3   1.0
         3.425250914                   0.1543289673
         0.6239137298                  0.5353281423
         0.168855404                   0.4446345422

6 0
S    3   1.0
         3.425250914                   0.1543289673
         0.6239137298                  0.5353281423
         0.168855404                   0.4446345422

7 0
S    3   1.0
         3.425250914                   0.1543289673
         0.6239137298                  0.5353281423
         0.168855404                   0.4446345422

8 0
S    3   1.0
         3.425250914                   0.1543289673
         0.6239137298                  0.5353281423
         0.168855404                   0.4446345422

[MO]
Sym=   A
Ene=  -2.351
Spin=  Alpha
Occup= 2
   1         0.065
   2         0.243
   3         0.072
   4         0.221
   5         0.065
   6         0.243
   7         0.072
   8         0.221
Sym=   A
Ene=  -0.735
Spin=  Alpha
Occup= 2
   1         0.429
   2         0.541
   3         0.238
   4         0.434
   5        -0.429
   6        -0.541
   7        -0.238
   8        -0.434
Sym=   A
Ene=  -0.718
Spin=  Alpha
Occup= 2
   1         0.306
   2         0.51
   3        -0.356
   4        -0.473
   5         0.306
   6         0.51
   7        -0.356
   8        -0.473
Sym=   A
Ene=  -0.55
Spin=  Alpha
Occup= 2
   1         0.457
   2        -0.35
   3         0.413
   4        -0.399
   5         0.457
   6        -0.35
   7         0.413
   8        -0.399
Sym=   A
Ene=   0.742
Spin=  Alpha
Occup= 2
   1         1.114
   2         0.505
   3        -0.419
   4        -1.269
   5        -1.114
   6        -0.505
   7         0.419
   8         1.269
Sym=   A
Ene=   1.325
Spin=  Alpha
Occup= 0
   1         0.937
   2        -0.862
   3        -0.939
   4         0.868
   5         0.937
   6        -0.862
   7        -0.939
   8         0.868
Sym=   A
Ene=   1.338
Spin=  Alpha
Occup= 0
   1         0.61
   2        -1.233
   3         1.128
   4        -0.324
   5        -0.61
   6         1.233
   7        -1.128
   8         0.324
Sym=   A
Ene=   3.406
Spin=  Alpha
Occup= 0
   1         1.591
   2        -1.503
   3        -1.68
   4         1.557
   5        -1.591
   6         1.503
   7         1.68
   8        -1.557
