[Molden Format]
made by Quiqbox

[Atoms] (AU)
F    1    9         -0.86644        0.0            0.0
H    2    1          0.86644        0.0            0.0

[GTO]
1 0
S    3   1.0
       166.679134                      0.1543289673
        30.36081233                    0.5353281423
         8.216820672                   0.4446345422
S    3   1.0
         6.464803249                  -0.09996722919
         1.502281245                   0.3995128261
         0.4885884864                  0.7001154689
P    3   1.0
         6.464803249                   0.155916275
         1.502281245                   0.6076837186
         0.4885884864                  0.3919573931

2 0
S    3   1.0
         3.425250914                   0.1543289673
         0.6239137298                  0.5353281423
         0.168855404                   0.4446345422

[MO]
Sym=   A
Ene=  -25.89996
Spin=  Alpha
Occup= 2
   1        -0.9947
   2        -0.02264
   3        -0.00296
   4         0.0
   5         0.0
   6         0.00578
Sym=   A
Ene=  -1.47116
Spin=  Alpha
Occup= 2
   1        -0.24918
   2         0.9362
   3         0.08989
   4         0.0
   5         0.0
   6         0.15851
Sym=   A
Ene=  -0.58519
Spin=  Alpha
Occup= 2
   1         0.08249
   2        -0.43469
   3         0.70216
   4         0.0
   5         0.0
   6         0.52133
Sym=   A
Ene=  -0.46411
Spin=  Alpha
Occup= 2
   1         0.0
   2         0.0
   3         0.0
   4         1.0
   5         0.0
   6         0.0
Sym=   A
Ene=  -0.46411
Spin=  Alpha
Occup= 2
   1         0.0
   2         0.0
   3         0.0
   4         0.0
   5         1.0
   6         0.0
Sym=   A
Ene=   0.62901
Spin=  Alpha
Occup= 0
   1         0.0849
   2        -0.55952
   3        -0.82468
   4         0.0
   5         0.0
   6         1.09033
