[Molden Format]
made by Quiqbox

[Atoms] (AU)
H    1    1         -0.70014        0.0            0.0
H    2    1          0.70014        0.0            0.0

[GTO]
1 0
S    2   1.0
         1.309756377                   0.4301284983
         0.2331359749                  0.6789135305

2 0
S    2   1.0
         1.309756377                   0.4301284983
         0.2331359749                  0.6789135305

[MO]
Sym=   A
Ene=  -0.56709
Spin=  Alpha
Occup= 1
   1         0.54932
   2         0.54893
Sym=   A
Ene=   0.68391
Spin=  Alpha
Occup= 0
   1        -1.20933
   2         1.2095
Sym=   A
Ene=  -0.56709
Spin=  Beta
Occup= 1
   1         0.54893
   2         0.54932
Sym=   A
Ene=   0.68391
Spin=  Beta
Occup= 0
   1        -1.2095
   2         1.20933
