[Molden Format]
made by Quiqbox

[Atoms] (AU)
X    1    X         -1.52463        -0.88023        -0.48982
X    2    X          0.00000         0.00000         0.20995
X    3    X          0.00000         1.76047        -0.48982
X    4    X          1.52463        -0.88023        -0.48982
H    5    1          0.70014         0.00000         0.00000
H    6    1         -0.70014         0.00000         0.00000

[GTO]
1 0
S    2   1.0
         1.309756377               0.4301284983
         0.2331359749              0.6789135305

2 0
S    2   1.0
         1.309756377               0.4301284983
         0.2331359749              0.6789135305

3 0
S    2   1.0
         1.309756377               0.4301284983
         0.2331359749              0.6789135305

4 0
S    2   1.0
         1.309756377               0.4301284983
         0.2331359749              0.6789135305

[MO]
Sym=   A
Ene=  -0.48970
Spin=  Alpha
Occup= 2
   1         0.14357
   2         0.79341
   3         0.09475
   4         0.14357
Sym=   A
Ene=   0.73872
Spin=  Alpha
Occup= 0
   1         0.79685
   2         0.00000
   3        -0.00000
   4        -0.79685
Sym=   A
Ene=   0.81793
Spin=  Alpha
Occup= 0
   1        -0.48162
   2         0.07486
   3         0.89666
   4        -0.48162
Sym=   A
Ene=   1.19282
Spin=  Alpha
Occup= 0
   1        -0.66494
   2         1.19590
   3        -0.71884
   4        -0.66494
