[Molden Format]
made by Quiqbox

[Atoms] (AU)
X    1    X         -0.60000        -0.60000        -0.60000
X    2    X         -0.60000        -0.60000         0.60000
X    3    X         -0.60000         0.60000        -0.60000
X    4    X         -0.60000         0.60000         0.60000
X    5    X          0.60000        -0.60000        -0.60000
X    6    X          0.60000        -0.60000         0.60000
X    7    X          0.60000         0.60000        -0.60000
X    8    X          0.60000         0.60000         0.60000
H    9    1          0.70014         0.00000         0.00000
H    10   1         -0.70014         0.00000         0.00000

[GTO]
1 0
S    2   1.0
         1.30976         0.43013
         0.23314         0.67891

2 0
S    2   1.0
         1.30976         0.43013
         0.23314         0.67891

3 0
S    2   1.0
         1.30976         0.43013
         0.23314         0.67891

4 0
S    2   1.0
         1.30976         0.43013
         0.23314         0.67891

5 0
S    2   1.0
         1.30976         0.43013
         0.23314         0.67891

6 0
S    2   1.0
         1.30976         0.43013
         0.23314         0.67891

7 0
S    2   1.0
         1.30976         0.43013
         0.23314         0.67891

8 0
S    2   1.0
         1.30976         0.43013
         0.23314         0.67891

[MO]
Sym=   A
Ene=  -0.54227
Spin=  Alpha
Occup= 1
   1         0.15361
   2         0.15361
   3         0.15361
   4         0.15361
   5         0.15361
   6         0.15361
   7         0.15361
   8         0.15361
Sym=   A
Ene=   0.57855
Spin=  Alpha
Occup= 0
   1         0.41376
   2         0.41376
   3         0.41376
   4         0.41376
   5        -0.41376
   6        -0.41376
   7        -0.41376
   8        -0.41376
Sym=   A
Ene=   0.79242
Spin=  Alpha
Occup= 0
   1         0.58514
   2        -0.00000
   3         0.00000
   4        -0.58514
   5         0.58514
   6        -0.00000
   7         0.00000
   8        -0.58514
Sym=   A
Ene=   0.79242
Spin=  Alpha
Occup= 0
   1         0.00000
   2         0.58514
   3        -0.58514
   4        -0.00000
   5         0.00000
   6         0.58514
   7        -0.58514
   8        -0.00000
Sym=   A
Ene=   2.07293
Spin=  Alpha
Occup= 0
   1         1.27295
   2         0.00013
   3        -0.00013
   4        -1.27295
   5        -1.27295
   6        -0.00013
   7         0.00013
   8         1.27295
Sym=   A
Ene=   2.07293
Spin=  Alpha
Occup= 0
   1         0.00013
   2        -1.27295
   3         1.27295
   4        -0.00013
   5        -0.00013
   6         1.27295
   7        -1.27295
   8         0.00013
Sym=   A
Ene=   2.18101
Spin=  Alpha
Occup= 0
   1         0.90011
   2        -0.90011
   3        -0.90011
   4         0.90011
   5         0.90011
   6        -0.90011
   7        -0.90011
   8         0.90011
Sym=   A
Ene=   3.69451
Spin=  Alpha
Occup= 0
   1         1.59382
   2        -1.59382
   3        -1.59382
   4         1.59382
   5        -1.59382
   6         1.59382
   7         1.59382
   8        -1.59382
Sym=   A
Ene=  -0.54227
Spin=  Beta
Occup= 1
   1         0.15361
   2         0.15361
   3         0.15361
   4         0.15361
   5         0.15361
   6         0.15361
   7         0.15361
   8         0.15361
Sym=   A
Ene=   0.57855
Spin=  Beta
Occup= 0
   1         0.41376
   2         0.41376
   3         0.41376
   4         0.41376
   5        -0.41376
   6        -0.41376
   7        -0.41376
   8        -0.41376
Sym=   A
Ene=   0.79242
Spin=  Beta
Occup= 0
   1         0.58514
   2        -0.00000
   3         0.00000
   4        -0.58514
   5         0.58514
   6        -0.00000
   7         0.00000
   8        -0.58514
Sym=   A
Ene=   0.79242
Spin=  Beta
Occup= 0
   1         0.00000
   2         0.58514
   3        -0.58514
   4        -0.00000
   5         0.00000
   6         0.58514
   7        -0.58514
   8        -0.00000
Sym=   A
Ene=   2.07293
Spin=  Beta
Occup= 0
   1         1.27295
   2         0.00005
   3        -0.00005
   4        -1.27295
   5        -1.27295
   6        -0.00005
   7         0.00005
   8         1.27295
Sym=   A
Ene=   2.07293
Spin=  Beta
Occup= 0
   1         0.00005
   2        -1.27295
   3         1.27295
   4        -0.00005
   5        -0.00005
   6         1.27295
   7        -1.27295
   8         0.00005
Sym=   A
Ene=   2.18101
Spin=  Beta
Occup= 0
   1         0.90011
   2        -0.90011
   3        -0.90011
   4         0.90011
   5         0.90011
   6        -0.90011
   7        -0.90011
   8         0.90011
Sym=   A
Ene=   3.69451
Spin=  Beta
Occup= 0
   1         1.59382
   2        -1.59382
   3        -1.59382
   4         1.59382
   5        -1.59382
   6         1.59382
   7         1.59382
   8        -1.59382
