[Molden Format]
made by Quiqbox

[Atoms] (AU)
X    1    X         -0.60000        -0.60000        -0.60000
X    2    X         -0.60000        -0.60000         0.60000
X    3    X         -0.60000         0.60000        -0.60000
X    4    X         -0.60000         0.60000         0.60000
X    5    X          0.60000        -0.60000        -0.60000
X    6    X          0.60000        -0.60000         0.60000
X    7    X          0.60000         0.60000        -0.60000
X    8    X          0.60000         0.60000         0.60000
H    9    1          0.86644         0.00000         0.00000
F    10   9         -0.86644         0.00000         0.00000

[GTO]
1 0
S    2   1.0
         1.309756377               0.4301284983
         0.2331359749              0.6789135305

2 0
S    2   1.0
         1.309756377               0.4301284983
         0.2331359749              0.6789135305

3 0
S    2   1.0
         1.309756377               0.4301284983
         0.2331359749              0.6789135305

4 0
S    2   1.0
         1.309756377               0.4301284983
         0.2331359749              0.6789135305

5 0
S    2   1.0
         1.309756377               0.4301284983
         0.2331359749              0.6789135305

6 0
S    2   1.0
         1.309756377               0.4301284983
         0.2331359749              0.6789135305

7 0
S    2   1.0
         1.309756377               0.4301284983
         0.2331359749              0.6789135305

8 0
S    2   1.0
         1.309756377               0.4301284983
         0.2331359749              0.6789135305

[MO]
Sym=   A
Ene=  -3.66158
Spin=  Alpha
Occup= 1
   1         0.39002
   2         0.39002
   3         0.39000
   4         0.39000
   5        -0.16071
   6        -0.16070
   7        -0.16070
   8        -0.16070
Sym=   A
Ene=  -1.19890
Spin=  Alpha
Occup= 1
   1         0.69903
   2        -0.95506
   3         0.95503
   4        -0.69900
   5        -0.11908
   6         0.16269
   7        -0.16268
   8         0.11906
Sym=   A
Ene=  -1.19890
Spin=  Alpha
Occup= 1
   1         0.95505
   2         0.69901
   3        -0.69902
   4        -0.95504
   5        -0.16269
   6        -0.11907
   7         0.11907
   8         0.16268
Sym=   A
Ene=  -0.42078
Spin=  Alpha
Occup= 1
   1         0.20659
   2         0.20659
   3         0.20661
   4         0.20661
   5        -0.41105
   6        -0.41105
   7        -0.41106
   8        -0.41106
Sym=   A
Ene=   0.58528
Spin=  Alpha
Occup= 1
   1         1.48930
   2        -1.48929
   3        -1.48928
   4         1.48927
   5         0.14227
   6        -0.14229
   7        -0.14235
   8         0.14236
Sym=   A
Ene=   1.38531
Spin=  Alpha
Occup= 0
   1         0.52434
   2         0.53584
   3        -0.53582
   4        -0.52437
   5        -0.96968
   6        -0.99090
   7         0.99089
   8         0.96967
Sym=   A
Ene=   1.38531
Spin=  Alpha
Occup= 0
   1         0.53577
   2        -0.52429
   3         0.52442
   4        -0.53589
   5        -0.99089
   6         0.96967
   7        -0.96968
   8         0.99090
Sym=   A
Ene=   3.11664
Spin=  Alpha
Occup= 0
   1         1.06418
   2        -1.06418
   3        -1.06418
   4         1.06418
   5        -1.82489
   6         1.82489
   7         1.82488
   8        -1.82488
Sym=   A
Ene=  -3.66158
Spin=  Beta
Occup= 1
   1         0.39001
   2         0.39001
   3         0.39001
   4         0.39001
   5        -0.16070
   6        -0.16070
   7        -0.16071
   8        -0.16071
Sym=   A
Ene=  -1.19890
Spin=  Beta
Occup= 1
   1         0.91193
   2         0.75438
   3        -0.75438
   4        -0.91195
   5        -0.15532
   6        -0.12849
   7         0.12852
   8         0.15536
Sym=   A
Ene=  -1.19890
Spin=  Beta
Occup= 1
   1         0.75436
   2        -0.91192
   3         0.91196
   4        -0.75440
   5        -0.12848
   6         0.15532
   7        -0.15536
   8         0.12852
Sym=   A
Ene=  -0.42078
Spin=  Beta
Occup= 1
   1         0.20666
   2         0.20665
   3         0.20655
   4         0.20654
   5        -0.41111
   6        -0.41110
   7        -0.41101
   8        -0.41100
Sym=   A
Ene=   0.58528
Spin=  Beta
Occup= 1
   1         1.48916
   2        -1.48918
   3        -1.48939
   4         1.48941
   5         0.14256
   6        -0.14251
   7        -0.14213
   8         0.14208
Sym=   A
Ene=   1.38531
Spin=  Beta
Occup= 0
   1         0.48606
   2        -0.57148
   3         0.57074
   4        -0.48532
   5        -0.89821
   6         1.05618
   7        -1.05610
   8         0.89814
Sym=   A
Ene=   1.38531
Spin=  Beta
Occup= 0
   1         0.57117
   2         0.48561
   3        -0.48577
   4        -0.57105
   5        -1.05612
   6        -0.89815
   7         0.89820
   8         1.05615
Sym=   A
Ene=   3.11664
Spin=  Beta
Occup= 0
   1         1.06417
   2        -1.06417
   3        -1.06419
   4         1.06419
   5        -1.82484
   6         1.82485
   7         1.82491
   8        -1.82492
