[Molden Format]
made by Quiqbox

[Atoms] (AU)
H    1    1         -0.700144        0.0             0.0
H    2    1          0.700144        0.0             0.0

[GTO]
1 0
S    2   1.0
         1.309756377                   0.4301284983
         0.2331359749                  0.6789135305

2 0
S    2   1.0
         1.309756377                   0.4301284983
         0.2331359749                  0.6789135305

[MO]
Sym=   A
Ene=  -0.567093
Spin=  Alpha
Occup= 2
   1         0.549125
   2         0.549125
Sym=   A
Ene=   0.683908
Spin=  Alpha
Occup= 0
   1        -1.209415
   2         1.209415
