[Molden Format]
made by Quiqbox

[Atoms] (AU)
H    1    1         -0.700144        0.0             0.0
H    2    1          0.700144        0.0             0.0

[GTO]
1 0
S    3   1.0
         3.425250914                   0.1543289673
         0.6239137298                  0.5353281423
         0.168855404                   0.4446345422

2 0
S    3   1.0
         3.425250914                   0.1543289673
         0.6239137298                  0.5353281423
         0.168855404                   0.4446345422

[MO]
Sym=   A
Ene=  -0.57814
Spin=  Alpha
Occup= 1
   1         0.549155
   2         0.548746
Sym=   A
Ene=   0.670111
Spin=  Alpha
Occup= 0
   1        -1.211195
   2         1.21138
Sym=   A
Ene=  -0.57814
Spin=  Beta
Occup= 1
   1         0.548746
   2         0.549155
Sym=   A
Ene=   0.670111
Spin=  Beta
Occup= 0
   1        -1.21138
   2         1.211195
