[Molden Format]
made by Quiqbox

[Atoms] (AU)
F    1    9         -0.86644         0.00000         0.00000
H    2    1          0.86644         0.00000         0.00000

[GTO]
1 0
S    2   1.0
        63.73520         0.43013
        11.34483         0.67891
S    2   1.0
         2.49855         0.04947
         0.63370         0.96378
P    2   1.0
         2.49855         0.51154
         0.63370         0.61282

2 0
S    2   1.0
         1.30976         0.43013
         0.23314         0.67891

[MO]
Sym=   A
Ene=  -25.04693
Spin=  Alpha
Occup= 2
   1        -0.98733
   2        -0.04757
   3        -0.00525
   4         0.00000
   5         0.00000
   6         0.01256
Sym=   A
Ene=  -1.41684
Spin=  Alpha
Occup= 2
   1        -0.28669
   2         0.92384
   3         0.08474
   4         0.00000
   5         0.00000
   6         0.18832
Sym=   A
Ene=  -0.53813
Spin=  Alpha
Occup= 2
   1         0.10853
   2        -0.46688
   3         0.67549
   4         0.00000
   5         0.00000
   6         0.55352
Sym=   A
Ene=  -0.39866
Spin=  Alpha
Occup= 2
   1         0.00000
   2         0.00000
   3         0.00000
   4         1.00000
   5         0.00000
   6         0.00000
Sym=   A
Ene=  -0.39866
Spin=  Alpha
Occup= 2
   1         0.00000
   2         0.00000
   3         0.00000
   4         0.00000
   5         1.00000
   6         0.00000
Sym=   A
Ene=   0.69259
Spin=  Alpha
Occup= 0
   1         0.10871
   2        -0.55571
   3        -0.84174
   4         0.00000
   5         0.00000
   6         1.05927
