[Molden Format]
made by Quiqbox

[Atoms] (AU)
F    1    9         -0.866439        0.0             0.0
H    2    1          0.866439        0.0             0.0

[GTO]
1 0
S    2   1.0
        63.73520195                    0.4301284983
        11.34483382                    0.6789135305
S    2   1.0
         2.498548256                   0.0494717692
         0.6336978147                  0.9637824081
P    2   1.0
         2.498548256                   0.5115407076
         0.6336978147                  0.6128198961

2 0
S    2   1.0
         1.309756377                   0.4301284983
         0.2331359749                  0.6789135305

[MO]
Sym=   A
Ene=  -25.046935
Spin=  Alpha
Occup= 1
   1        -0.98733
   2        -0.04757
   3        -0.005254
   4         0.0
   5         0.0
   6         0.012558
Sym=   A
Ene=  -1.416866
Spin=  Alpha
Occup= 1
   1        -0.286698
   2         0.923854
   3         0.084753
   4         0.0
   5         0.0
   6         0.188289
Sym=   A
Ene=  -0.538169
Spin=  Alpha
Occup= 1
   1         0.108508
   2        -0.466791
   3         0.675609
   4         0.0
   5         0.0
   6         0.553371
Sym=   A
Ene=  -0.398664
Spin=  Alpha
Occup= 1
   1         0.0
   2         0.0
   3         0.0
   4         1.0
   5         0.0
   6         0.0
Sym=   A
Ene=  -0.398664
Spin=  Alpha
Occup= 1
   1         0.0
   2         0.0
   3         0.0
   4         0.0
   5         1.0
   6         0.0
Sym=   A
Ene=   0.692572
Spin=  Alpha
Occup= 0
   1         0.108721
   2        -0.555752
   3        -0.841641
   4         0.0
   5         0.0
   6         1.059357
Sym=   A
Ene=  -25.04693
Spin=  Beta
Occup= 1
   1        -0.987331
   2        -0.047569
   3        -0.005253
   4         0.0
   5         0.0
   6         0.012558
Sym=   A
Ene=  -1.416815
Spin=  Beta
Occup= 1
   1        -0.28669
   2         0.923819
   3         0.084723
   4         0.0
   5         0.0
   6         0.18835
Sym=   A
Ene=  -0.538084
Spin=  Beta
Occup= 1
   1         0.108543
   2        -0.466965
   3         0.675367
   4         0.0
   5         0.0
   6         0.553672
Sym=   A
Ene=  -0.398647
Spin=  Beta
Occup= 1
   1         0.0
   2         0.0
   3         0.0
   4         1.0
   5         0.0
   6         0.0
Sym=   A
Ene=  -0.398647
Spin=  Beta
Occup= 1
   1         0.0
   2         0.0
   3         0.0
   4         0.0
   5         1.0
   6         0.0
Sym=   A
Ene=   0.692605
Spin=  Beta
Occup= 0
   1         0.108704
   2        -0.555664
   3        -0.841839
   4         0.0
   5         0.0
   6         1.059189
