[Molden Format]
made by Quiqbox

[Atoms] (AU)
X    1    X         -0.87        0.0         0.0
X    2    X          0.87        0.0         0.0
H    3    1          0.7         0.0         0.0
H    4    1         -0.7         0.0         0.0

[GTO]
1 0
S    3   1.0
         3.425250914                   0.1543289673
         0.6239137298                  0.5353281423
         0.168855404                   0.4446345422

2 0
S    3   1.0
         3.425250914                   0.1543289673
         0.6239137298                  0.5353281423
         0.168855404                   0.4446345422

[MO]
Sym=   A
Ene=  -0.56
Spin=  Alpha
Occup= 2
   1         0.57
   2         0.57
Sym=   A
Ene=   0.57
Spin=  Alpha
Occup= 0
   1        -1.05
   2         1.05
