[Molden Format]
made by Quiqbox

[Atoms] (AU)
H    1    1           -0.70014         0.00000         0.00000
H    2    1            0.70014         0.00000         0.00000

[GTO]
1 0
S    2   1.0
         1.30976         0.43013
         0.23314         0.67891

2 0
S    2   1.0
         1.30976         0.43013
         0.23314         0.67891

[MO]
Sym=   A
Ene=  -0.56709
Spin=  Alpha
Occup= 2
   1     0.54913
   2     0.54913
Sym=   A
Ene=   0.68391
Spin=  Alpha
Occup= 0
   1    -1.20942
   2     1.20942
