[Molden Format]
made by Quiqbox

[Atoms] (AU)
H    1    1         -1.52463        -0.88023        -0.48982
N    2    7          0.00000         0.00000         0.20995
H    3    1          0.00000         1.76047        -0.48982
H    4    1          1.52463        -0.88023        -0.48982

[GTO]
1 0
S    3   1.0
         3.42525         0.15433
         0.62391         0.53533
         0.16886         0.44463

2 0
S    3   1.0
        99.10617         0.15433
        18.05231         0.53533
         4.88566         0.44463
S    3   1.0
         3.78046        -0.09997
         0.87850         0.39951
         0.28571         0.70012
P    3   1.0
         3.78046         0.15592
         0.87850         0.60768
         0.28571         0.39196

3 0
S    3   1.0
         3.42525         0.15433
         0.62391         0.53533
         0.16886         0.44463

4 0
S    3   1.0
         3.42525         0.15433
         0.62391         0.53533
         0.16886         0.44463

[MO]
Sym=   A
Ene=  -15.30237
Spin=  Alpha
Occup= 1
   1        -0.00681
   2         0.99333
   3         0.03241
   4         0.00000
   5         0.00000
   6        -0.00500
   7        -0.00681
   8        -0.00681
Sym=   A
Ene=  -1.09459
Spin=  Alpha
Occup= 1
   1        -0.15965
   2         0.21974
   3        -0.73360
   4        -0.00002
   5         0.00001
   6         0.13657
   7        -0.15963
   8        -0.15979
Sym=   A
Ene=  -0.57768
Spin=  Alpha
Occup= 1
   1        -0.27963
   2         0.00005
   3        -0.00024
   4         0.53629
   5        -0.25526
   6         0.00010
   7        -0.21191
   8         0.49175
Sym=   A
Ene=  -0.57766
Spin=  Alpha
Occup= 1
   1         0.40613
   2         0.00001
   3        -0.00005
   4        -0.25534
   5        -0.53646
   6         0.00002
   7        -0.44518
   8         0.03910
Sym=   A
Ene=  -0.35204
Spin=  Alpha
Occup= 1
   1         0.11688
   2         0.08719
   3        -0.43815
   4        -0.00006
   5         0.00005
   6        -0.89817
   7         0.11685
   8         0.11700
Sym=   A
Ene=   0.65029
Spin=  Alpha
Occup= 0
   1         0.72358
   2         0.18697
   3        -1.29341
   4        -0.00079
   5         0.00069
   6         0.55704
   7         0.72327
   8         0.72470
Sym=   A
Ene=   0.74304
Spin=  Alpha
Occup= 0
   1         0.58603
   2         0.00016
   3        -0.00115
   4         0.96620
   5        -0.44145
   6         0.00041
   7         0.42014
   8        -1.00421
Sym=   A
Ene=   0.74306
Spin=  Alpha
Occup= 0
   1        -0.82222
   2         0.00005
   3        -0.00036
   4        -0.44141
   5        -0.96610
   6         0.00014
   7         0.91841
   8        -0.09558
Sym=   A
Ene=  -15.30228
Spin=  Beta
Occup= 1
   1        -0.00681
   2         0.99333
   3         0.03241
   4         0.00000
   5         0.00000
   6        -0.00500
   7        -0.00681
   8        -0.00681
Sym=   A
Ene=  -1.09433
Spin=  Beta
Occup= 1
   1        -0.16016
   2         0.21961
   3        -0.73276
   4         0.00001
   5        -0.00001
   6         0.13631
   7        -0.16017
   8        -0.16012
Sym=   A
Ene=  -0.57764
Spin=  Beta
Occup= 1
   1        -0.40801
   2         0.00000
   3        -0.00002
   4         0.25687
   5         0.53451
   6         0.00000
   7         0.44535
   8        -0.03732
Sym=   A
Ene=  -0.57762
Spin=  Beta
Occup= 1
   1         0.27866
   2         0.00002
   3        -0.00008
   4        -0.53456
   5         0.25689
   6         0.00003
   7         0.21402
   8        -0.49261
Sym=   A
Ene=  -0.35188
Spin=  Beta
Occup= 1
   1         0.11731
   2         0.08731
   3        -0.43893
   4         0.00002
   5        -0.00002
   6        -0.89786
   7         0.11731
   8         0.11727
Sym=   A
Ene=   0.65031
Spin=  Beta
Occup= 0
   1         0.72381
   2         0.18706
   3        -1.29362
   4         0.00025
   5        -0.00014
   6         0.55762
   7         0.72379
   8         0.72346
Sym=   A
Ene=   0.74311
Spin=  Beta
Occup= 0
   1        -0.85990
   2         0.00000
   3        -0.00002
   4        -0.50640
   5        -0.93438
   6         0.00001
   7         0.88710
   8        -0.02718
Sym=   A
Ene=   0.74313
Spin=  Beta
Occup= 0
   1        -0.52769
   2         0.00004
   3        -0.00031
   4        -0.93435
   5         0.50639
   6         0.00011
   7        -0.48061
   8         1.00883
