[Molden Format]
made by Quiqbox

[Atoms] (AU)
X    1    X         -0.6            -0.6            -0.6
X    2    X         -0.6            -0.6             0.6
X    3    X         -0.6             0.6            -0.6
X    4    X         -0.6             0.6             0.6
X    5    X          0.6            -0.6            -0.6
X    6    X          0.6            -0.6             0.6
X    7    X          0.6             0.6            -0.6
X    8    X          0.6             0.6             0.6
N    9    7          0.0             0.0             0.209949
H    10   1          0.0             1.760469       -0.489817
H    11   1          1.524631       -0.880234       -0.489817
H    12   1         -1.524631       -0.880234       -0.489817

[GTO]
1 0
S    3   1.0
         3.425250914                   0.1543289673
         0.6239137298                  0.5353281423
         0.168855404                   0.4446345422

2 0
S    3   1.0
         3.425250914                   0.1543289673
         0.6239137298                  0.5353281423
         0.168855404                   0.4446345422

3 0
S    3   1.0
         3.425250914                   0.1543289673
         0.6239137298                  0.5353281423
         0.168855404                   0.4446345422

4 0
S    3   1.0
         3.425250914                   0.1543289673
         0.6239137298                  0.5353281423
         0.168855404                   0.4446345422

5 0
S    3   1.0
         3.425250914                   0.1543289673
         0.6239137298                  0.5353281423
         0.168855404                   0.4446345422

6 0
S    3   1.0
         3.425250914                   0.1543289673
         0.6239137298                  0.5353281423
         0.168855404                   0.4446345422

7 0
S    3   1.0
         3.425250914                   0.1543289673
         0.6239137298                  0.5353281423
         0.168855404                   0.4446345422

8 0
S    3   1.0
         3.425250914                   0.1543289673
         0.6239137298                  0.5353281423
         0.168855404                   0.4446345422

[MO]
Sym=   A
Ene=  -2.351456
Spin=  Alpha
Occup= 2
   1         0.06542
   2         0.243447
   3         0.071841
   4         0.221337
   5         0.065419
   6         0.243447
   7         0.071841
   8         0.221337
Sym=   A
Ene=  -0.734887
Spin=  Alpha
Occup= 2
   1         0.429448
   2         0.541224
   3         0.23847
   4         0.433648
   5        -0.42944
   6        -0.541215
   7        -0.238475
   8        -0.433659
Sym=   A
Ene=  -0.718072
Spin=  Alpha
Occup= 2
   1         0.306257
   2         0.510014
   3        -0.355943
   4        -0.473178
   5         0.306265
   6         0.510024
   7        -0.355938
   8        -0.47317
Sym=   A
Ene=  -0.549782
Spin=  Alpha
Occup= 2
   1         0.456947
   2        -0.35049
   3         0.413335
   4        -0.398705
   5         0.456949
   6        -0.350487
   7         0.413336
   8        -0.398703
Sym=   A
Ene=   0.741683
Spin=  Alpha
Occup= 2
   1         1.114278
   2         0.505368
   3        -0.418621
   4        -1.268776
   5        -1.114288
   6        -0.505359
   7         0.418632
   8         1.268766
Sym=   A
Ene=   1.324669
Spin=  Alpha
Occup= 0
   1         0.937046
   2        -0.861794
   3        -0.939262
   4         0.867787
   5         0.93703
   6        -0.861793
   7        -0.939263
   8         0.867803
Sym=   A
Ene=   1.337808
Spin=  Alpha
Occup= 0
   1         0.610192
   2        -1.232998
   3         1.128453
   4        -0.324198
   5        -0.610197
   6         1.233003
   7        -1.128449
   8         0.324194
Sym=   A
Ene=   3.406464
Spin=  Alpha
Occup= 0
   1         1.590651
   2        -1.503315
   3        -1.68019
   4         1.55744
   5        -1.590651
   6         1.503315
   7         1.68019
   8        -1.55744
