[Molden Format]
made by Quiqbox

[Atoms] (AU)
X    1    X         -0.6          -0.6          -0.6
X    2    X         -0.6          -0.6           0.6
X    3    X         -0.6           0.6          -0.6
X    4    X         -0.6           0.6           0.6
X    5    X          0.6          -0.6          -0.6
X    6    X          0.6          -0.6           0.6
X    7    X          0.6           0.6          -0.6
X    8    X          0.6           0.6           0.6
H    9    1          0.8664        0.0           0.0
F    10   9         -0.8664        0.0           0.0

[GTO]
1 0
S    2   1.0
         1.309756377                   0.4301284983
         0.2331359749                  0.6789135305

2 0
S    2   1.0
         1.309756377                   0.4301284983
         0.2331359749                  0.6789135305

3 0
S    2   1.0
         1.309756377                   0.4301284983
         0.2331359749                  0.6789135305

4 0
S    2   1.0
         1.309756377                   0.4301284983
         0.2331359749                  0.6789135305

5 0
S    2   1.0
         1.309756377                   0.4301284983
         0.2331359749                  0.6789135305

6 0
S    2   1.0
         1.309756377                   0.4301284983
         0.2331359749                  0.6789135305

7 0
S    2   1.0
         1.309756377                   0.4301284983
         0.2331359749                  0.6789135305

8 0
S    2   1.0
         1.309756377                   0.4301284983
         0.2331359749                  0.6789135305

[MO]
Sym=   A
Ene=  -3.6615
Spin=  Alpha
Occup= 2
   1         0.39
   2         0.39
   3         0.39
   4         0.39
   5        -0.1607
   6        -0.1607
   7        -0.1607
   8        -0.1607
Sym=   A
Ene=  -1.1989
Spin=  Alpha
Occup= 2
   1         1.1835
   2        -0.0007
   3         0.0007
   4        -1.1835
   5        -0.2016
   6         0.0001
   7        -0.0001
   8         0.2016
Sym=   A
Ene=  -1.1989
Spin=  Alpha
Occup= 2
   1         0.0007
   2         1.1835
   3        -1.1835
   4        -0.0007
   5        -0.0001
   6        -0.2016
   7         0.2016
   8         0.0001
Sym=   A
Ene=  -0.4208
Spin=  Alpha
Occup= 2
   1         0.2066
   2         0.2066
   3         0.2066
   4         0.2066
   5        -0.4111
   6        -0.4111
   7        -0.4111
   8        -0.4111
Sym=   A
Ene=   0.5853
Spin=  Alpha
Occup= 2
   1         1.4893
   2        -1.4893
   3        -1.4893
   4         1.4893
   5         0.1423
   6        -0.1423
   7        -0.1423
   8         0.1423
Sym=   A
Ene=   1.3853
Spin=  Alpha
Occup= 0
   1         0.7497
   2         0.0005
   3        -0.0005
   4        -0.7497
   5        -1.3864
   6        -0.001
   7         0.001
   8         1.3864
Sym=   A
Ene=   1.3853
Spin=  Alpha
Occup= 0
   1         0.0005
   2        -0.7497
   3         0.7497
   4        -0.0005
   5        -0.001
   6         1.3864
   7        -1.3864
   8         0.001
Sym=   A
Ene=   3.1166
Spin=  Alpha
Occup= 0
   1         1.0642
   2        -1.0642
   3        -1.0642
   4         1.0642
   5        -1.8249
   6         1.8249
   7         1.8249
   8        -1.8249
