[Molden Format]
made by Quiqbox

[Atoms] (AU)
X    1    X         -0.6         -0.6         -0.6
X    2    X         -0.6         -0.6          0.6
X    3    X         -0.6          0.6         -0.6
X    4    X         -0.6          0.6          0.6
X    5    X          0.6         -0.6         -0.6
X    6    X          0.6         -0.6          0.6
X    7    X          0.6          0.6         -0.6
X    8    X          0.6          0.6          0.6
H    9    1          0.7          0.0          0.0
H    10   1         -0.7          0.0          0.0

[GTO]
1 0
S    3   1.0
         3.425250914                   0.1543289673
         0.6239137298                  0.5353281423
         0.168855404                   0.4446345422

2 0
S    3   1.0
         3.425250914                   0.1543289673
         0.6239137298                  0.5353281423
         0.168855404                   0.4446345422

3 0
S    3   1.0
         3.425250914                   0.1543289673
         0.6239137298                  0.5353281423
         0.168855404                   0.4446345422

4 0
S    3   1.0
         3.425250914                   0.1543289673
         0.6239137298                  0.5353281423
         0.168855404                   0.4446345422

5 0
S    3   1.0
         3.425250914                   0.1543289673
         0.6239137298                  0.5353281423
         0.168855404                   0.4446345422

6 0
S    3   1.0
         3.425250914                   0.1543289673
         0.6239137298                  0.5353281423
         0.168855404                   0.4446345422

7 0
S    3   1.0
         3.425250914                   0.1543289673
         0.6239137298                  0.5353281423
         0.168855404                   0.4446345422

8 0
S    3   1.0
         3.425250914                   0.1543289673
         0.6239137298                  0.5353281423
         0.168855404                   0.4446345422

[MO]
Sym=   A
Ene=  -0.534
Spin=  Alpha
Occup= 1
   1         0.154
   2         0.154
   3         0.154
   4         0.154
   5         0.153
   6         0.153
   7         0.153
   8         0.153
Sym=   A
Ene=   0.638
Spin=  Alpha
Occup= 0
   1         0.414
   2         0.414
   3         0.414
   4         0.414
   5        -0.414
   6        -0.414
   7        -0.414
   8        -0.414
Sym=   A
Ene=   0.834
Spin=  Alpha
Occup= 0
   1         0.0
   2         0.585
   3        -0.585
   4        -0.0
   5         0.0
   6         0.585
   7        -0.585
   8        -0.0
Sym=   A
Ene=   0.834
Spin=  Alpha
Occup= 0
   1         0.585
   2        -0.0
   3         0.0
   4        -0.585
   5         0.585
   6        -0.0
   7         0.0
   8        -0.585
Sym=   A
Ene=   2.186
Spin=  Alpha
Occup= 0
   1         0.0
   2         1.28
   3        -1.28
   4        -0.0
   5        -0.0
   6        -1.28
   7         1.28
   8         0.0
Sym=   A
Ene=   2.186
Spin=  Alpha
Occup= 0
   1         1.28
   2        -0.0
   3         0.0
   4        -1.28
   5        -1.28
   6         0.0
   7        -0.0
   8         1.28
Sym=   A
Ene=   2.272
Spin=  Alpha
Occup= 0
   1         0.905
   2        -0.905
   3        -0.905
   4         0.905
   5         0.905
   6        -0.905
   7        -0.905
   8         0.905
Sym=   A
Ene=   4.332
Spin=  Alpha
Occup= 0
   1         1.587
   2        -1.587
   3        -1.587
   4         1.587
   5        -1.587
   6         1.587
   7         1.587
   8        -1.587
Sym=   A
Ene=  -0.534
Spin=  Beta
Occup= 1
   1         0.153
   2         0.153
   3         0.153
   4         0.153
   5         0.154
   6         0.154
   7         0.154
   8         0.154
Sym=   A
Ene=   0.638
Spin=  Beta
Occup= 0
   1         0.414
   2         0.414
   3         0.414
   4         0.414
   5        -0.414
   6        -0.414
   7        -0.414
   8        -0.414
Sym=   A
Ene=   0.834
Spin=  Beta
Occup= 0
   1         0.148
   2         0.566
   3        -0.566
   4        -0.148
   5         0.148
   6         0.566
   7        -0.566
   8        -0.148
Sym=   A
Ene=   0.834
Spin=  Beta
Occup= 0
   1         0.566
   2        -0.148
   3         0.148
   4        -0.566
   5         0.566
   6        -0.148
   7         0.148
   8        -0.566
Sym=   A
Ene=   2.186
Spin=  Beta
Occup= 0
   1         0.202
   2         1.264
   3        -1.264
   4        -0.202
   5        -0.202
   6        -1.264
   7         1.264
   8         0.202
Sym=   A
Ene=   2.186
Spin=  Beta
Occup= 0
   1         1.264
   2        -0.202
   3         0.202
   4        -1.264
   5        -1.264
   6         0.202
   7        -0.202
   8         1.264
Sym=   A
Ene=   2.272
Spin=  Beta
Occup= 0
   1         0.905
   2        -0.905
   3        -0.905
   4         0.905
   5         0.905
   6        -0.905
   7        -0.905
   8         0.905
Sym=   A
Ene=   4.332
Spin=  Beta
Occup= 0
   1         1.587
   2        -1.587
   3        -1.587
   4         1.587
   5        -1.587
   6         1.587
   7         1.587
   8        -1.587
