[Molden Format]
made by Quiqbox

[Atoms] (AU)
X    1    X         -0.6       -0.6       -0.6
X    2    X         -0.6       -0.6        0.6
X    3    X         -0.6        0.6       -0.6
X    4    X         -0.6        0.6        0.6
X    5    X          0.6       -0.6       -0.6
X    6    X          0.6       -0.6        0.6
X    7    X          0.6        0.6       -0.6
X    8    X          0.6        0.6        0.6
H    9    1          0.9        0.0        0.0
F    10   9         -0.9        0.0        0.0

[GTO]
1 0
S    2   1.0
         1.309756377                   0.4301284983
         0.2331359749                  0.6789135305

2 0
S    2   1.0
         1.309756377                   0.4301284983
         0.2331359749                  0.6789135305

3 0
S    2   1.0
         1.309756377                   0.4301284983
         0.2331359749                  0.6789135305

4 0
S    2   1.0
         1.309756377                   0.4301284983
         0.2331359749                  0.6789135305

5 0
S    2   1.0
         1.309756377                   0.4301284983
         0.2331359749                  0.6789135305

6 0
S    2   1.0
         1.309756377                   0.4301284983
         0.2331359749                  0.6789135305

7 0
S    2   1.0
         1.309756377                   0.4301284983
         0.2331359749                  0.6789135305

8 0
S    2   1.0
         1.309756377                   0.4301284983
         0.2331359749                  0.6789135305

[MO]
Sym=   A
Ene=  -3.7
Spin=  Alpha
Occup= 1
   1         0.4
   2         0.4
   3         0.4
   4         0.4
   5        -0.2
   6        -0.2
   7        -0.2
   8        -0.2
Sym=   A
Ene=  -1.2
Spin=  Alpha
Occup= 1
   1         1.2
   2        -0.0
   3         0.0
   4        -1.2
   5        -0.2
   6         0.0
   7        -0.0
   8         0.2
Sym=   A
Ene=  -1.2
Spin=  Alpha
Occup= 1
   1         0.0
   2         1.2
   3        -1.2
   4        -0.0
   5        -0.0
   6        -0.2
   7         0.2
   8         0.0
Sym=   A
Ene=  -0.4
Spin=  Alpha
Occup= 1
   1         0.2
   2         0.2
   3         0.2
   4         0.2
   5        -0.4
   6        -0.4
   7        -0.4
   8        -0.4
Sym=   A
Ene=   0.6
Spin=  Alpha
Occup= 1
   1         1.5
   2        -1.5
   3        -1.5
   4         1.5
   5         0.1
   6        -0.1
   7        -0.1
   8         0.1
Sym=   A
Ene=   1.4
Spin=  Alpha
Occup= 0
   1         0.0
   2         0.7
   3        -0.7
   4        -0.0
   5        -0.0
   6        -1.4
   7         1.4
   8         0.0
Sym=   A
Ene=   1.4
Spin=  Alpha
Occup= 0
   1         0.7
   2         0.0
   3         0.0
   4        -0.7
   5        -1.4
   6         0.0
   7        -0.0
   8         1.4
Sym=   A
Ene=   3.1
Spin=  Alpha
Occup= 0
   1         1.1
   2        -1.1
   3        -1.1
   4         1.1
   5        -1.8
   6         1.8
   7         1.8
   8        -1.8
Sym=   A
Ene=  -3.7
Spin=  Beta
Occup= 1
   1         0.4
   2         0.4
   3         0.4
   4         0.4
   5        -0.2
   6        -0.2
   7        -0.2
   8        -0.2
Sym=   A
Ene=  -1.2
Spin=  Beta
Occup= 1
   1         0.0
   2        -1.2
   3         1.2
   4        -0.0
   5        -0.0
   6         0.2
   7        -0.2
   8         0.0
Sym=   A
Ene=  -1.2
Spin=  Beta
Occup= 1
   1         1.2
   2         0.0
   3        -0.0
   4        -1.2
   5        -0.2
   6        -0.0
   7         0.0
   8         0.2
Sym=   A
Ene=  -0.4
Spin=  Beta
Occup= 1
   1         0.2
   2         0.2
   3         0.2
   4         0.2
   5        -0.4
   6        -0.4
   7        -0.4
   8        -0.4
Sym=   A
Ene=   0.6
Spin=  Beta
Occup= 1
   1         1.5
   2        -1.5
   3        -1.5
   4         1.5
   5         0.1
   6        -0.1
   7        -0.1
   8         0.1
Sym=   A
Ene=   1.4
Spin=  Beta
Occup= 0
   1         0.7
   2         0.0
   3        -0.0
   4        -0.7
   5        -1.4
   6        -0.0
   7         0.0
   8         1.4
Sym=   A
Ene=   1.4
Spin=  Beta
Occup= 0
   1         0.0
   2        -0.7
   3         0.7
   4        -0.0
   5        -0.0
   6         1.4
   7        -1.4
   8         0.0
Sym=   A
Ene=   3.1
Spin=  Beta
Occup= 0
   1         1.1
   2        -1.1
   3        -1.1
   4         1.1
   5        -1.8
   6         1.8
   7         1.8
   8        -1.8
