[Molden Format]
made by Quiqbox

[Atoms] (AU)
H    1    1         -1.5       -0.9       -0.5
N    2    7          0.0        0.0        0.2
H    3    1          0.0        1.8       -0.5
H    4    1          1.5       -0.9       -0.5

[GTO]
1 0
S    3   1.0
         3.425250914                   0.1543289673
         0.6239137298                  0.5353281423
         0.168855404                   0.4446345422

2 0
S    3   1.0
        99.10616896                    0.1543289673
        18.05231239                    0.5353281423
         4.885660238                   0.4446345422
S    3   1.0
         3.780455879                  -0.09996722919
         0.8784966449                  0.3995128261
         0.2857143744                  0.7001154689
P    3   1.0
         3.780455879                   0.155916275
         0.8784966449                  0.6076837186
         0.2857143744                  0.3919573931

3 0
S    3   1.0
         3.425250914                   0.1543289673
         0.6239137298                  0.5353281423
         0.168855404                   0.4446345422

4 0
S    3   1.0
         3.425250914                   0.1543289673
         0.6239137298                  0.5353281423
         0.168855404                   0.4446345422

[MO]
Sym=   A
Ene=  -15.3
Spin=  Alpha
Occup= 2
   1        -0.0
   2         1.0
   3         0.0
   4        -0.0
   5         0.0
   6        -0.0
   7        -0.0
   8        -0.0
Sym=   A
Ene=  -1.1
Spin=  Alpha
Occup= 2
   1        -0.2
   2         0.2
   3        -0.7
   4         0.0
   5        -0.0
   6         0.1
   7        -0.2
   8        -0.2
Sym=   A
Ene=  -0.6
Spin=  Alpha
Occup= 2
   1         0.4
   2         0.0
   3        -0.0
   4        -0.6
   5        -0.0
   6        -0.0
   7        -0.0
   8        -0.4
Sym=   A
Ene=  -0.6
Spin=  Alpha
Occup= 2
   1        -0.2
   2         0.0
   3        -0.0
   4        -0.0
   5         0.6
   6        -0.0
   7         0.5
   8        -0.2
Sym=   A
Ene=  -0.4
Spin=  Alpha
Occup= 2
   1         0.1
   2         0.1
   3        -0.4
   4        -0.0
   5         0.0
   6        -0.9
   7         0.1
   8         0.1
Sym=   A
Ene=   0.7
Spin=  Alpha
Occup= 0
   1         0.7
   2         0.2
   3        -1.3
   4         0.0
   5         0.0
   6         0.6
   7         0.7
   8         0.7
Sym=   A
Ene=   0.7
Spin=  Alpha
Occup= 0
   1        -0.9
   2         0.0
   3        -0.0
   4        -1.1
   5         0.0
   6         0.0
   7        -0.0
   8         0.9
Sym=   A
Ene=   0.7
Spin=  Alpha
Occup= 0
   1        -0.5
   2         0.0
   3        -0.0
   4        -0.0
   5        -1.1
   6         0.0
   7         1.0
   8        -0.5
