[Molden Format]
made by Quiqbox

[Atoms] (AU)
X    1    X         -0.6       -0.6       -0.6
X    2    X         -0.6       -0.6        0.6
X    3    X         -0.6        0.6       -0.6
X    4    X         -0.6        0.6        0.6
X    5    X          0.6       -0.6       -0.6
X    6    X          0.6       -0.6        0.6
X    7    X          0.6        0.6       -0.6
X    8    X          0.6        0.6        0.6
H    9    1          0.7        0.0        0.0
H    10   1         -0.7        0.0        0.0

[GTO]
1 0
S    2   1.0
         1.309756377                   0.4301284983
         0.2331359749                  0.6789135305

2 0
S    2   1.0
         1.309756377                   0.4301284983
         0.2331359749                  0.6789135305

3 0
S    2   1.0
         1.309756377                   0.4301284983
         0.2331359749                  0.6789135305

4 0
S    2   1.0
         1.309756377                   0.4301284983
         0.2331359749                  0.6789135305

5 0
S    2   1.0
         1.309756377                   0.4301284983
         0.2331359749                  0.6789135305

6 0
S    2   1.0
         1.309756377                   0.4301284983
         0.2331359749                  0.6789135305

7 0
S    2   1.0
         1.309756377                   0.4301284983
         0.2331359749                  0.6789135305

8 0
S    2   1.0
         1.309756377                   0.4301284983
         0.2331359749                  0.6789135305

[MO]
Sym=   A
Ene=  -0.5
Spin=  Alpha
Occup= 2
   1         0.2
   2         0.2
   3         0.2
   4         0.2
   5         0.2
   6         0.2
   7         0.2
   8         0.2
Sym=   A
Ene=   0.6
Spin=  Alpha
Occup= 0
   1         0.4
   2         0.4
   3         0.4
   4         0.4
   5        -0.4
   6        -0.4
   7        -0.4
   8        -0.4
Sym=   A
Ene=   0.8
Spin=  Alpha
Occup= 0
   1         0.4
   2         0.4
   3        -0.4
   4        -0.4
   5         0.4
   6         0.4
   7        -0.4
   8        -0.4
Sym=   A
Ene=   0.8
Spin=  Alpha
Occup= 0
   1         0.4
   2        -0.4
   3         0.4
   4        -0.4
   5         0.4
   6        -0.4
   7         0.4
   8        -0.4
Sym=   A
Ene=   2.1
Spin=  Alpha
Occup= 0
   1         0.8
   2        -1.0
   3         1.0
   4        -0.8
   5        -0.8
   6         1.0
   7        -1.0
   8         0.8
Sym=   A
Ene=   2.1
Spin=  Alpha
Occup= 0
   1         1.0
   2         0.8
   3        -0.8
   4        -1.0
   5        -1.0
   6        -0.8
   7         0.8
   8         1.0
Sym=   A
Ene=   2.2
Spin=  Alpha
Occup= 0
   1         0.9
   2        -0.9
   3        -0.9
   4         0.9
   5         0.9
   6        -0.9
   7        -0.9
   8         0.9
Sym=   A
Ene=   3.7
Spin=  Alpha
Occup= 0
   1         1.6
   2        -1.6
   3        -1.6
   4         1.6
   5        -1.6
   6         1.6
   7         1.6
   8        -1.6
