[Molden Format]
made by Quiqbox

[Atoms] (AU)
X    1    X         -0.86644         0.00000         0.00000
X    2    X          0.86644         0.00000         0.00000
H    3    1          0.70014         0.00000         0.00000
H    4    1         -0.70014         0.00000         0.00000

[GTO]
1 0
S    2   1.0
         1.309756377               0.4301284983
         0.2331359749              0.6789135305

2 0
S    2   1.0
         1.309756377               0.4301284983
         0.2331359749              0.6789135305

[MO]
Sym=   A
Ene=  -0.55280
Spin=  Alpha
Occup= 1
   1         0.57057
   2         0.56678
Sym=   A
Ene=   0.57195
Spin=  Alpha
Occup= 0
   1        -1.04854
   2         1.05060
Sym=   A
Ene=  -0.55280
Spin=  Beta
Occup= 1
   1         0.56678
   2         0.57057
Sym=   A
Ene=   0.57195
Spin=  Beta
Occup= 0
   1        -1.05060
   2         1.04854
