[Molden Format]
made by Quiqbox

[Atoms] (AU)
X    1    X         -0.6            -0.6            -0.6
X    2    X         -0.6            -0.6             0.6
X    3    X         -0.6             0.6            -0.6
X    4    X         -0.6             0.6             0.6
X    5    X          0.6            -0.6            -0.6
X    6    X          0.6            -0.6             0.6
X    7    X          0.6             0.6            -0.6
X    8    X          0.6             0.6             0.6
N    9    7          0.0             0.0             0.209949
H    10   1          0.0             1.760469       -0.489817
H    11   1          1.524631       -0.880234       -0.489817
H    12   1         -1.524631       -0.880234       -0.489817

[GTO]
1 0
S    2   1.0
         1.309756377                   0.4301284983
         0.2331359749                  0.6789135305

2 0
S    2   1.0
         1.309756377                   0.4301284983
         0.2331359749                  0.6789135305

3 0
S    2   1.0
         1.309756377                   0.4301284983
         0.2331359749                  0.6789135305

4 0
S    2   1.0
         1.309756377                   0.4301284983
         0.2331359749                  0.6789135305

5 0
S    2   1.0
         1.309756377                   0.4301284983
         0.2331359749                  0.6789135305

6 0
S    2   1.0
         1.309756377                   0.4301284983
         0.2331359749                  0.6789135305

7 0
S    2   1.0
         1.309756377                   0.4301284983
         0.2331359749                  0.6789135305

8 0
S    2   1.0
         1.309756377                   0.4301284983
         0.2331359749                  0.6789135305

[MO]
Sym=   A
Ene=  -2.387907
Spin=  Alpha
Occup= 1
   1         0.043555
   2         0.253593
   3         0.054717
   4         0.251514
   5         0.065995
   6         0.246134
   7         0.065274
   8         0.216974
Sym=   A
Ene=  -0.823821
Spin=  Alpha
Occup= 1
   1         0.135572
   2         0.226439
   3         0.273817
   4         0.71595
   5        -0.621776
   6        -0.625544
   7        -0.069266
   8        -0.078357
Sym=   A
Ene=  -0.779132
Spin=  Alpha
Occup= 1
   1         0.392441
   2         0.778251
   3        -0.209958
   4        -0.165393
   5         0.009091
   6         0.191883
   7        -0.484135
   8        -0.566619
Sym=   A
Ene=  -0.624068
Spin=  Alpha
Occup= 1
   1         0.509193
   2        -0.182587
   3         0.468563
   4        -0.295822
   5         0.379386
   6        -0.477651
   7         0.345268
   8        -0.481035
Sym=   A
Ene=   0.615341
Spin=  Alpha
Occup= 1
   1         0.748625
   2         0.657943
   3         0.036385
   4        -1.477033
   5        -1.465982
   6         0.00133
   7         0.693581
   8         0.815351
Sym=   A
Ene=   1.238148
Spin=  Alpha
Occup= 0
   1         1.132317
   2        -0.275243
   3        -1.261512
   4         0.345942
   5         0.530457
   6        -1.242749
   7        -0.400977
   8         1.179481
Sym=   A
Ene=   1.240851
Spin=  Alpha
Occup= 0
   1         0.849708
   2        -1.389366
   3         0.851627
   4        -0.119772
   5        -0.375438
   6         0.965437
   7        -1.307089
   8         0.537312
Sym=   A
Ene=   2.954425
Spin=  Alpha
Occup= 0
   1         1.58426
   2        -1.521331
   3        -1.687726
   4         1.581668
   5        -1.549713
   6         1.521406
   7         1.671842
   8        -1.599275
Sym=   A
Ene=  -2.387907
Spin=  Beta
Occup= 1
   1         0.065991
   2         0.246141
   3         0.065274
   4         0.216971
   5         0.043552
   6         0.253592
   7         0.054723
   8         0.25151
Sym=   A
Ene=  -0.823822
Spin=  Beta
Occup= 1
   1         0.62174
   2         0.625624
   3         0.069158
   4         0.078261
   5        -0.135508
   6        -0.226281
   7        -0.273895
   8        -0.715962
Sym=   A
Ene=  -0.779143
Spin=  Beta
Occup= 1
   1         0.008951
   2         0.191777
   3        -0.484175
   4        -0.566601
   5         0.39243
   6         0.778315
   7        -0.209926
   8        -0.165234
Sym=   A
Ene=  -0.624056
Spin=  Beta
Occup= 1
   1         0.37942
   2        -0.4776
   3         0.345243
   4        -0.481066
   5         0.509201
   6        -0.182547
   7         0.468544
   8        -0.29588
Sym=   A
Ene=   0.61535
Spin=  Beta
Occup= 1
   1         1.4659
   2        -0.001119
   3        -0.693817
   4        -0.815275
   5        -0.748481
   6        -0.658208
   7        -0.036203
   8         1.477005
Sym=   A
Ene=   1.238141
Spin=  Beta
Occup= 0
   1         0.53212
   2        -1.246947
   3        -0.395284
   4         1.177109
   5         1.12859
   6        -0.269196
   7        -1.265212
   8         0.346489
Sym=   A
Ene=   1.24085
Spin=  Beta
Occup= 0
   1         0.373396
   2        -0.960003
   3         1.3087
   4        -0.542609
   5        -0.854774
   6         1.390421
   7        -0.846132
   8         0.118547
Sym=   A
Ene=   2.954424
Spin=  Beta
Occup= 0
   1         1.549721
   2        -1.521406
   3        -1.671837
   4         1.599276
   5        -1.584268
   6         1.52133
   7         1.687721
   8        -1.581667
