[Molden Format]
made by Quiqbox

[Atoms] (AU)
X    1    X         -0.6          -0.6          -0.6
X    2    X         -0.6          -0.6           0.6
X    3    X         -0.6           0.6          -0.6
X    4    X         -0.6           0.6           0.6
X    5    X          0.6          -0.6          -0.6
X    6    X          0.6          -0.6           0.6
X    7    X          0.6           0.6          -0.6
X    8    X          0.6           0.6           0.6
N    9    7          0.0           0.0           0.2099
H    10   1          0.0           1.7605       -0.4898
H    11   1          1.5246       -0.8802       -0.4898
H    12   1         -1.5246       -0.8802       -0.4898

[GTO]
1 0
S    2   1.0
         1.309756377                   0.4301284983
         0.2331359749                  0.6789135305

2 0
S    2   1.0
         1.309756377                   0.4301284983
         0.2331359749                  0.6789135305

3 0
S    2   1.0
         1.309756377                   0.4301284983
         0.2331359749                  0.6789135305

4 0
S    2   1.0
         1.309756377                   0.4301284983
         0.2331359749                  0.6789135305

5 0
S    2   1.0
         1.309756377                   0.4301284983
         0.2331359749                  0.6789135305

6 0
S    2   1.0
         1.309756377                   0.4301284983
         0.2331359749                  0.6789135305

7 0
S    2   1.0
         1.309756377                   0.4301284983
         0.2331359749                  0.6789135305

8 0
S    2   1.0
         1.309756377                   0.4301284983
         0.2331359749                  0.6789135305

[MO]
Sym=   A
Ene=  -2.3879
Spin=  Alpha
Occup= 1
   1         0.0436
   2         0.2536
   3         0.0547
   4         0.2515
   5         0.066
   6         0.2461
   7         0.0653
   8         0.217
Sym=   A
Ene=  -0.8238
Spin=  Alpha
Occup= 1
   1         0.1356
   2         0.2264
   3         0.2738
   4         0.716
   5        -0.6218
   6        -0.6255
   7        -0.0693
   8        -0.0784
Sym=   A
Ene=  -0.7791
Spin=  Alpha
Occup= 1
   1         0.3924
   2         0.7783
   3        -0.21
   4        -0.1654
   5         0.0091
   6         0.1919
   7        -0.4841
   8        -0.5666
Sym=   A
Ene=  -0.6241
Spin=  Alpha
Occup= 1
   1         0.5092
   2        -0.1826
   3         0.4686
   4        -0.2958
   5         0.3794
   6        -0.4777
   7         0.3453
   8        -0.481
Sym=   A
Ene=   0.6153
Spin=  Alpha
Occup= 1
   1         0.7486
   2         0.6579
   3         0.0364
   4        -1.477
   5        -1.466
   6         0.0013
   7         0.6936
   8         0.8154
Sym=   A
Ene=   1.2381
Spin=  Alpha
Occup= 0
   1         1.1323
   2        -0.2752
   3        -1.2615
   4         0.3459
   5         0.5305
   6        -1.2427
   7        -0.401
   8         1.1795
Sym=   A
Ene=   1.2409
Spin=  Alpha
Occup= 0
   1         0.8497
   2        -1.3894
   3         0.8516
   4        -0.1198
   5        -0.3754
   6         0.9654
   7        -1.3071
   8         0.5373
Sym=   A
Ene=   2.9544
Spin=  Alpha
Occup= 0
   1         1.5843
   2        -1.5213
   3        -1.6877
   4         1.5817
   5        -1.5497
   6         1.5214
   7         1.6718
   8        -1.5993
Sym=   A
Ene=  -2.3879
Spin=  Beta
Occup= 1
   1         0.066
   2         0.2461
   3         0.0653
   4         0.217
   5         0.0436
   6         0.2536
   7         0.0547
   8         0.2515
Sym=   A
Ene=  -0.8238
Spin=  Beta
Occup= 1
   1         0.6217
   2         0.6256
   3         0.0692
   4         0.0783
   5        -0.1355
   6        -0.2263
   7        -0.2739
   8        -0.716
Sym=   A
Ene=  -0.7791
Spin=  Beta
Occup= 1
   1         0.009
   2         0.1918
   3        -0.4842
   4        -0.5666
   5         0.3924
   6         0.7783
   7        -0.2099
   8        -0.1652
Sym=   A
Ene=  -0.6241
Spin=  Beta
Occup= 1
   1         0.3794
   2        -0.4776
   3         0.3452
   4        -0.4811
   5         0.5092
   6        -0.1825
   7         0.4685
   8        -0.2959
Sym=   A
Ene=   0.6154
Spin=  Beta
Occup= 1
   1         1.4659
   2        -0.0011
   3        -0.6938
   4        -0.8153
   5        -0.7485
   6        -0.6582
   7        -0.0362
   8         1.477
Sym=   A
Ene=   1.2381
Spin=  Beta
Occup= 0
   1         0.5321
   2        -1.2469
   3        -0.3953
   4         1.1771
   5         1.1286
   6        -0.2692
   7        -1.2652
   8         0.3465
Sym=   A
Ene=   1.2409
Spin=  Beta
Occup= 0
   1         0.3734
   2        -0.96
   3         1.3087
   4        -0.5426
   5        -0.8548
   6         1.3904
   7        -0.8461
   8         0.1185
Sym=   A
Ene=   2.9544
Spin=  Beta
Occup= 0
   1         1.5497
   2        -1.5214
   3        -1.6718
   4         1.5993
   5        -1.5843
   6         1.5213
   7         1.6877
   8        -1.5817
