[Molden Format]
made by Quiqbox

[Atoms] (AU)
X    1    X         -0.60000        -0.60000        -0.60000
X    2    X         -0.60000        -0.60000         0.60000
X    3    X         -0.60000         0.60000        -0.60000
X    4    X         -0.60000         0.60000         0.60000
X    5    X          0.60000        -0.60000        -0.60000
X    6    X          0.60000        -0.60000         0.60000
X    7    X          0.60000         0.60000        -0.60000
X    8    X          0.60000         0.60000         0.60000
N    9    7          0.00000         0.00000         0.20995
H    10   1          0.00000         1.76047        -0.48982
H    11   1          1.52463        -0.88023        -0.48982
H    12   1         -1.52463        -0.88023        -0.48982

[GTO]
1 0
S    2   1.0
         1.309756377               0.4301284983
         0.2331359749              0.6789135305

2 0
S    2   1.0
         1.309756377               0.4301284983
         0.2331359749              0.6789135305

3 0
S    2   1.0
         1.309756377               0.4301284983
         0.2331359749              0.6789135305

4 0
S    2   1.0
         1.309756377               0.4301284983
         0.2331359749              0.6789135305

5 0
S    2   1.0
         1.309756377               0.4301284983
         0.2331359749              0.6789135305

6 0
S    2   1.0
         1.309756377               0.4301284983
         0.2331359749              0.6789135305

7 0
S    2   1.0
         1.309756377               0.4301284983
         0.2331359749              0.6789135305

8 0
S    2   1.0
         1.309756377               0.4301284983
         0.2331359749              0.6789135305

[MO]
Sym=   A
Ene=  -2.38732
Spin=  Alpha
Occup= 1
   1         0.04594
   2         0.25366
   3         0.05469
   4         0.24923
   5         0.06525
   6         0.24570
   7         0.06482
   8         0.21867
Sym=   A
Ene=  -0.82132
Spin=  Alpha
Occup= 1
   1         0.15454
   2         0.25356
   3         0.27069
   4         0.70521
   5        -0.61928
   6        -0.62183
   7        -0.08399
   8        -0.10131
Sym=   A
Ene=  -0.77886
Spin=  Alpha
Occup= 1
   1         0.40241
   2         0.76171
   3        -0.21297
   4        -0.19521
   5         0.03698
   6         0.20631
   7        -0.47193
   8        -0.57500
Sym=   A
Ene=  -0.62694
Spin=  Alpha
Occup= 1
   1         0.50531
   2        -0.20587
   3         0.46817
   4        -0.29595
   5         0.38049
   6        -0.47512
   7         0.35636
   8        -0.46739
Sym=   A
Ene=   0.61715
Spin=  Alpha
Occup= 1
   1         0.79332
   2         0.61957
   3         0.02335
   4        -1.47027
   5        -1.46206
   6        -0.00477
   7         0.65727
   8         0.85273
Sym=   A
Ene=   1.23500
Spin=  Alpha
Occup= 0
   1         1.37204
   2        -0.89875
   3        -0.74031
   4         0.30095
   5         0.34341
   6        -0.66534
   7        -0.97002
   8         1.26875
Sym=   A
Ene=   1.24165
Spin=  Alpha
Occup= 0
   1         0.23535
   2        -1.11846
   3         1.33077
   4        -0.25082
   5        -0.56366
   6         1.42595
   7        -0.98731
   8        -0.06481
Sym=   A
Ene=   2.95440
Spin=  Alpha
Occup= 0
   1         1.58036
   2        -1.52126
   3        -1.68750
   4         1.58358
   5        -1.54947
   6         1.52205
   7         1.67312
   8        -1.59994
Sym=   A
Ene=  -2.38759
Spin=  Beta
Occup= 1
   1         0.06241
   2         0.24859
   3         0.06559
   4         0.21854
   5         0.04398
   6         0.25304
   7         0.05806
   8         0.24765
Sym=   A
Ene=  -0.82245
Spin=  Beta
Occup= 1
   1         0.59693
   2         0.66133
   3         0.03161
   4         0.05985
   5        -0.12663
   6        -0.17559
   7        -0.31009
   8        -0.70893
Sym=   A
Ene=  -0.78169
Spin=  Beta
Occup= 1
   1         0.02735
   2        -0.15420
   3         0.48623
   4         0.57283
   5        -0.40156
   6        -0.78831
   7         0.19450
   8         0.11869
Sym=   A
Ene=  -0.62273
Spin=  Beta
Occup= 1
   1         0.39833
   2        -0.44437
   3         0.34997
   4        -0.48053
   5         0.50485
   6        -0.19237
   7         0.45928
   8        -0.32842
Sym=   A
Ene=   0.61871
Spin=  Beta
Occup= 1
   1         1.42924
   2         0.08499
   3        -0.71057
   4        -0.85222
   5        -0.77066
   6        -0.68889
   7         0.04447
   8         1.45636
Sym=   A
Ene=   1.23553
Spin=  Beta
Occup= 0
   1         0.61597
   2        -1.28875
   3        -0.36055
   4         1.10817
   5         1.05416
   6        -0.23526
   7        -1.30524
   8         0.42066
Sym=   A
Ene=   1.24000
Spin=  Beta
Occup= 0
   1         0.38524
   2        -0.89516
   3         1.31017
   4        -0.62431
   5        -0.92613
   6         1.38108
   7        -0.78585
   8         0.14374
Sym=   A
Ene=   2.95401
Spin=  Beta
Occup= 0
   1         1.55494
   2        -1.52257
   3        -1.67105
   4         1.59798
   5        -1.58463
   6         1.52231
   7         1.68420
   8        -1.58226
