[Molden Format]
made by Quiqbox

[Atoms] (AU)
H    1    1         -0.70014         0.00000         0.00000
H    2    1          0.70014         0.00000         0.00000

[GTO]
1 0
S    3   1.0
         3.42525         0.15433
         0.62391         0.53533
         0.16886         0.44463

2 0
S    3   1.0
         3.42525         0.15433
         0.62391         0.53533
         0.16886         0.44463

[MO]
Sym=   A
Ene=  -0.57814
Spin=  Alpha
Occup= 2
   1         0.54895
   2         0.54895
Sym=   A
Ene=   0.67011
Spin=  Alpha
Occup= 0
   1        -1.21129
   2         1.21129
