[Molden Format]
made by Quiqbox

[Atoms] (AU)
X    1    X         -0.6            -0.6            -0.6
X    2    X         -0.6            -0.6             0.6
X    3    X         -0.6             0.6            -0.6
X    4    X         -0.6             0.6             0.6
X    5    X          0.6            -0.6            -0.6
X    6    X          0.6            -0.6             0.6
X    7    X          0.6             0.6            -0.6
X    8    X          0.6             0.6             0.6
N    9    7          0.0             0.0             0.209949
H    10   1          0.0             1.760469       -0.489817
H    11   1          1.524631       -0.880234       -0.489817
H    12   1         -1.524631       -0.880234       -0.489817

[GTO]
1 0
S    3   1.0
         3.425250914                   0.1543289673
         0.6239137298                  0.5353281423
         0.168855404                   0.4446345422

2 0
S    3   1.0
         3.425250914                   0.1543289673
         0.6239137298                  0.5353281423
         0.168855404                   0.4446345422

3 0
S    3   1.0
         3.425250914                   0.1543289673
         0.6239137298                  0.5353281423
         0.168855404                   0.4446345422

4 0
S    3   1.0
         3.425250914                   0.1543289673
         0.6239137298                  0.5353281423
         0.168855404                   0.4446345422

5 0
S    3   1.0
         3.425250914                   0.1543289673
         0.6239137298                  0.5353281423
         0.168855404                   0.4446345422

6 0
S    3   1.0
         3.425250914                   0.1543289673
         0.6239137298                  0.5353281423
         0.168855404                   0.4446345422

7 0
S    3   1.0
         3.425250914                   0.1543289673
         0.6239137298                  0.5353281423
         0.168855404                   0.4446345422

8 0
S    3   1.0
         3.425250914                   0.1543289673
         0.6239137298                  0.5353281423
         0.168855404                   0.4446345422

[MO]
Sym=   A
Ene=  -2.35377
Spin=  Alpha
Occup= 1
   1         0.053767
   2         0.247523
   3         0.063823
   4         0.241534
   5         0.076202
   6         0.237173
   7         0.07574
   8         0.20757
Sym=   A
Ene=  -0.74988
Spin=  Alpha
Occup= 1
   1         0.143528
   2         0.261128
   3         0.2833
   4         0.693846
   5        -0.616495
   6        -0.625613
   7        -0.091873
   8        -0.086349
Sym=   A
Ene=  -0.710974
Spin=  Alpha
Occup= 1
   1         0.394645
   2         0.770058
   3        -0.218514
   4        -0.192606
   5         0.032426
   6         0.204274
   7        -0.488479
   8        -0.551794
Sym=   A
Ene=  -0.542839
Spin=  Alpha
Occup= 1
   1         0.516074
   2        -0.195207
   3         0.461786
   4        -0.304864
   5         0.376301
   6        -0.480417
   7         0.344065
   8        -0.479163
Sym=   A
Ene=   0.719348
Spin=  Alpha
Occup= 1
   1         0.700329
   2         0.768985
   3        -0.023395
   4        -1.500223
   5        -1.389694
   6        -0.13613
   7         0.721325
   8         0.867397
Sym=   A
Ene=   1.341505
Spin=  Alpha
Occup= 0
   1         0.366427
   2        -1.11372
   3         1.297724
   4        -0.358925
   5        -0.660748
   6         1.392989
   7        -0.986179
   8         0.071724
Sym=   A
Ene=   1.344734
Spin=  Alpha
Occup= 0
   1         1.364058
   2        -0.819193
   3        -0.796403
   4         0.271941
   5         0.355729
   6        -0.758017
   7        -0.921135
   8         1.314516
Sym=   A
Ene=   3.408433
Spin=  Alpha
Occup= 0
   1         1.607022
   2        -1.500046
   3        -1.687973
   4         1.546035
   5        -1.578153
   6         1.503251
   7         1.673605
   8        -1.563133
Sym=   A
Ene=  -2.35377
Spin=  Beta
Occup= 1
   1         0.076197
   2         0.237183
   3         0.075741
   4         0.207565
   5         0.053762
   6         0.247523
   7         0.063831
   8         0.241528
Sym=   A
Ene=  -0.74988
Spin=  Beta
Occup= 1
   1         0.616459
   2         0.625708
   3         0.091752
   4         0.086247
   5        -0.14346
   6        -0.260957
   7        -0.28339
   8        -0.69386
Sym=   A
Ene=  -0.710986
Spin=  Beta
Occup= 1
   1         0.032265
   2         0.204166
   3        -0.488534
   4        -0.551767
   5         0.394624
   6         0.770142
   7        -0.218485
   8        -0.19243
Sym=   A
Ene=  -0.542827
Spin=  Beta
Occup= 1
   1         0.376345
   2        -0.480355
   3         0.344031
   4        -0.479206
   5         0.516089
   6        -0.195151
   7         0.461758
   8        -0.304936
Sym=   A
Ene=   0.71936
Spin=  Beta
Occup= 1
   1         1.389582
   2         0.136365
   3        -0.721585
   4        -0.867294
   5        -0.700157
   6        -0.769273
   7         0.023603
   8         1.50017
Sym=   A
Ene=   1.34149
Spin=  Beta
Occup= 0
   1         0.66229
   2        -1.395641
   3         0.982757
   4        -0.067229
   5        -0.361711
   6         1.110635
   7        -1.300549
   8         0.360199
Sym=   A
Ene=   1.344738
Spin=  Beta
Occup= 0
   1         0.353284
   2        -0.753069
   3        -0.924586
   4         1.314823
   5         1.365403
   6        -0.823093
   7        -0.79178
   8         0.270555
Sym=   A
Ene=   3.408432
Spin=  Beta
Occup= 0
   1         1.578161
   2        -1.503249
   3        -1.6736
   4         1.563134
   5        -1.60703
   6         1.500043
   7         1.687967
   8        -1.546036
