[Molden Format]
made by Quiqbox

[Atoms] (AU)
X    1    X         -0.86644         0.00000         0.00000
X    2    X          0.86644         0.00000         0.00000
H    3    1          0.70014         0.00000         0.00000
H    4    1         -0.70014         0.00000         0.00000

[GTO]
1 0
S    2   1.0
         1.30976         0.43013
         0.23314         0.67891

2 0
S    2   1.0
         1.30976         0.43013
         0.23314         0.67891

[MO]
Sym=   A
Ene=  -0.55280
Spin=  Alpha
Occup= 2
   1         0.56868
   2         0.56868
Sym=   A
Ene=   0.57195
Spin=  Alpha
Occup= 0
   1        -1.04957
   2         1.04957
