[Molden Format]
made by Quiqbox

[Atoms] (AU)
H    1    1         -1.5       -0.9       -0.5
N    2    7          0.0        0.0        0.2
H    3    1          0.0        1.8       -0.5
H    4    1          1.5       -0.9       -0.5

[GTO]
1 0
S    2   1.0
         1.309756377                   0.4301284983
         0.2331359749                  0.6789135305

2 0
S    2   1.0
        37.89647534                    0.4301284983
         6.745553507                   0.6789135305
S    2   1.0
         1.461088772                   0.0494717692
         0.3705706944                  0.9637824081
P    2   1.0
         1.461088772                   0.5115407076
         0.3705706944                  0.6128198961

3 0
S    2   1.0
         1.309756377                   0.4301284983
         0.2331359749                  0.6789135305

4 0
S    2   1.0
         1.309756377                   0.4301284983
         0.2331359749                  0.6789135305

[MO]
Sym=   A
Ene=  -14.8
Spin=  Alpha
Occup= 1
   1        -0.0
   2         1.0
   3         0.1
   4         0.0
   5         0.0
   6        -0.0
   7        -0.0
   8        -0.0
Sym=   A
Ene=  -1.1
Spin=  Alpha
Occup= 1
   1        -0.2
   2         0.2
   3        -0.7
   4         0.0
   5        -0.0
   6         0.1
   7        -0.2
   8        -0.2
Sym=   A
Ene=  -0.6
Spin=  Alpha
Occup= 1
   1        -0.3
   2         0.0
   3        -0.0
   4         0.5
   5        -0.2
   6         0.0
   7        -0.2
   8         0.5
Sym=   A
Ene=  -0.6
Spin=  Alpha
Occup= 1
   1        -0.4
   2         0.0
   3        -0.0
   4         0.2
   5         0.5
   6        -0.0
   7         0.5
   8        -0.1
Sym=   A
Ene=  -0.3
Spin=  Alpha
Occup= 1
   1         0.1
   2         0.1
   3        -0.5
   4        -0.0
   5         0.0
   6        -0.9
   7         0.1
   8         0.1
Sym=   A
Ene=   0.7
Spin=  Alpha
Occup= 0
   1         0.7
   2         0.2
   3        -1.3
   4        -0.0
   5         0.0
   6         0.6
   7         0.7
   8         0.7
Sym=   A
Ene=   0.8
Spin=  Alpha
Occup= 0
   1         0.8
   2         0.0
   3        -0.0
   4         1.1
   5        -0.1
   6        -0.0
   7         0.1
   8        -0.9
Sym=   A
Ene=   0.8
Spin=  Alpha
Occup= 0
   1        -0.6
   2         0.0
   3        -0.0
   4        -0.1
   5        -1.1
   6         0.0
   7         1.0
   8        -0.4
Sym=   A
Ene=  -14.8
Spin=  Beta
Occup= 1
   1        -0.0
   2         1.0
   3         0.1
   4        -0.0
   5         0.0
   6        -0.0
   7        -0.0
   8        -0.0
Sym=   A
Ene=  -1.1
Spin=  Beta
Occup= 1
   1        -0.2
   2         0.2
   3        -0.7
   4        -0.0
   5        -0.0
   6         0.1
   7        -0.2
   8        -0.2
Sym=   A
Ene=  -0.6
Spin=  Beta
Occup= 1
   1        -0.4
   2         0.0
   3        -0.0
   4         0.3
   5         0.5
   6        -0.0
   7         0.4
   8         0.0
Sym=   A
Ene=  -0.6
Spin=  Beta
Occup= 1
   1         0.2
   2         0.0
   3        -0.0
   4        -0.5
   5         0.3
   6         0.0
   7         0.3
   8        -0.5
Sym=   A
Ene=  -0.3
Spin=  Beta
Occup= 1
   1         0.1
   2         0.1
   3        -0.5
   4         0.0
   5        -0.0
   6        -0.9
   7         0.1
   8         0.1
Sym=   A
Ene=   0.7
Spin=  Beta
Occup= 0
   1         0.7
   2         0.2
   3        -1.3
   4         0.0
   5         0.0
   6         0.6
   7         0.7
   8         0.7
Sym=   A
Ene=   0.8
Spin=  Beta
Occup= 0
   1        -0.9
   2         0.0
   3        -0.0
   4        -1.0
   5        -0.2
   6         0.0
   7         0.2
   8         0.8
Sym=   A
Ene=   0.8
Spin=  Beta
Occup= 0
   1        -0.3
   2         0.0
   3        -0.0
   4         0.2
   5        -1.0
   6         0.0
   7         1.0
   8        -0.6
