[Molden Format]
made by Quiqbox

[Atoms] (AU)
H    1    1         -1.525       -0.88        -0.49
N    2    7          0.0          0.0          0.21
H    3    1          0.0          1.76        -0.49
H    4    1          1.525       -0.88        -0.49

[GTO]
1 0
S    2   1.0
         1.309756377                   0.4301284983
         0.2331359749                  0.6789135305

2 0
S    2   1.0
        37.89647534                    0.4301284983
         6.745553507                   0.6789135305
S    2   1.0
         1.461088772                   0.0494717692
         0.3705706944                  0.9637824081
P    2   1.0
         1.461088772                   0.5115407076
         0.3705706944                  0.6128198961

3 0
S    2   1.0
         1.309756377                   0.4301284983
         0.2331359749                  0.6789135305

4 0
S    2   1.0
         1.309756377                   0.4301284983
         0.2331359749                  0.6789135305

[MO]
Sym=   A
Ene=  -14.815
Spin=  Alpha
Occup= 1
   1        -0.015
   2         0.984
   3         0.067
   4         0.0
   5         0.0
   6        -0.009
   7        -0.015
   8        -0.015
Sym=   A
Ene=  -1.081
Spin=  Alpha
Occup= 1
   1        -0.172
   2         0.249
   3        -0.715
   4         0.0
   5        -0.0
   6         0.135
   7        -0.172
   8        -0.172
Sym=   A
Ene=  -0.568
Spin=  Alpha
Occup= 1
   1        -0.313
   2         0.0
   3        -0.0
   4         0.539
   5        -0.215
   6         0.0
   7        -0.188
   8         0.501
Sym=   A
Ene=  -0.568
Spin=  Alpha
Occup= 1
   1        -0.398
   2         0.0
   3        -0.0
   4         0.215
   5         0.539
   6        -0.0
   7         0.47
   8        -0.072
Sym=   A
Ene=  -0.329
Spin=  Alpha
Occup= 1
   1         0.131
   2         0.112
   3        -0.472
   4        -0.0
   5         0.0
   6        -0.886
   7         0.131
   8         0.131
Sym=   A
Ene=   0.666
Spin=  Alpha
Occup= 0
   1         0.724
   2         0.242
   3        -1.308
   4        -0.0
   5         0.0
   6         0.577
   7         0.724
   8         0.724
Sym=   A
Ene=   0.784
Spin=  Alpha
Occup= 0
   1         0.798
   2         0.0
   3        -0.0
   4         1.057
   5        -0.122
   6        -0.0
   7         0.114
   8        -0.912
Sym=   A
Ene=   0.784
Spin=  Alpha
Occup= 0
   1        -0.592
   2         0.0
   3        -0.0
   4        -0.122
   5        -1.057
   6         0.0
   7         0.987
   8        -0.395
Sym=   A
Ene=  -14.815
Spin=  Beta
Occup= 1
   1        -0.015
   2         0.984
   3         0.067
   4        -0.0
   5         0.0
   6        -0.009
   7        -0.015
   8        -0.015
Sym=   A
Ene=  -1.081
Spin=  Beta
Occup= 1
   1        -0.172
   2         0.249
   3        -0.715
   4        -0.0
   5        -0.0
   6         0.135
   7        -0.172
   8        -0.172
Sym=   A
Ene=  -0.568
Spin=  Beta
Occup= 1
   1        -0.449
   2         0.0
   3        -0.0
   4         0.311
   5         0.49
   6        -0.0
   7         0.427
   8         0.022
Sym=   A
Ene=  -0.568
Spin=  Beta
Occup= 1
   1         0.234
   2         0.0
   3        -0.0
   4        -0.49
   5         0.311
   6         0.0
   7         0.272
   8        -0.506
Sym=   A
Ene=  -0.329
Spin=  Beta
Occup= 1
   1         0.131
   2         0.112
   3        -0.472
   4         0.0
   5        -0.0
   6        -0.886
   7         0.131
   8         0.131
Sym=   A
Ene=   0.666
Spin=  Beta
Occup= 0
   1         0.724
   2         0.242
   3        -1.308
   4         0.0
   5         0.0
   6         0.577
   7         0.724
   8         0.724
Sym=   A
Ene=   0.784
Spin=  Beta
Occup= 0
   1        -0.933
   2         0.0
   3        -0.0
   4        -1.049
   5        -0.183
   6         0.0
   7         0.171
   8         0.763
Sym=   A
Ene=   0.784
Spin=  Beta
Occup= 0
   1        -0.342
   2         0.0
   3        -0.0
   4         0.183
   5        -1.049
   6         0.0
   7         0.979
   8        -0.637
