[Molden Format]
made by Quiqbox

[Atoms] (AU)
X    1    X         -0.86644         0.00000         0.00000
X    2    X          0.86644         0.00000         0.00000
H    3    1          0.70014         0.00000         0.00000
H    4    1         -0.70014         0.00000         0.00000

[GTO]
1 0
S    3   1.0
         3.425250914               0.1543289673
         0.6239137298              0.5353281423
         0.168855404               0.4446345422

2 0
S    3   1.0
         3.425250914               0.1543289673
         0.6239137298              0.5353281423
         0.168855404               0.4446345422

[MO]
Sym=   A
Ene=  -0.56086
Spin=  Alpha
Occup= 2
   1         0.56858
   2         0.56858
Sym=   A
Ene=   0.57151
Spin=  Alpha
Occup= 0
   1        -1.05017
   2         1.05017
