[Molden Format]
made by Quiqbox

[Atoms] (AU)
H    1    1         -1.52463        -0.88023        -0.48982
N    2    7          0.00000         0.00000         0.20995
H    3    1          0.00000         1.76047        -0.48982
H    4    1          1.52463        -0.88023        -0.48982

[GTO]
1 0
S    3   1.0
         3.425250914               0.1543289673
         0.6239137298              0.5353281423
         0.168855404               0.4446345422

2 0
S    3   1.0
        99.10616896                0.1543289673
        18.05231239                0.5353281423
         4.885660238               0.4446345422
S    3   1.0
         3.780455879              -0.09996722919
         0.8784966449              0.3995128261
         0.2857143744              0.7001154689
P    3   1.0
         3.780455879               0.155916275
         0.8784966449              0.6076837186
         0.2857143744              0.3919573931

3 0
S    3   1.0
         3.425250914               0.1543289673
         0.6239137298              0.5353281423
         0.168855404               0.4446345422

4 0
S    3   1.0
         3.425250914               0.1543289673
         0.6239137298              0.5353281423
         0.168855404               0.4446345422

[MO]
Sym=   A
Ene=  -15.30376
Spin=  Alpha
Occup= 1
   1        -0.00681
   2         0.99333
   3         0.03241
   4         0.00000
   5         0.00000
   6        -0.00500
   7        -0.00681
   8        -0.00681
Sym=   A
Ene=  -1.09508
Spin=  Alpha
Occup= 1
   1        -0.15970
   2         0.21973
   3        -0.73353
   4        -0.00001
   5         0.00000
   6         0.13654
   7        -0.15968
   8        -0.15981
Sym=   A
Ene=  -0.57805
Spin=  Alpha
Occup= 1
   1        -0.27866
   2         0.00004
   3        -0.00019
   4         0.53557
   5        -0.25658
   6         0.00010
   7        -0.21307
   8         0.49191
Sym=   A
Ene=  -0.57799
Spin=  Alpha
Occup= 1
   1         0.40691
   2         0.00001
   3        -0.00005
   4        -0.25665
   5        -0.53573
   6         0.00001
   7        -0.44472
   8         0.03787
Sym=   A
Ene=  -0.35269
Spin=  Alpha
Occup= 1
   1         0.11690
   2         0.08720
   3        -0.43822
   4        -0.00005
   5         0.00004
   6        -0.89814
   7         0.11690
   8         0.11704
Sym=   A
Ene=   0.65001
Spin=  Alpha
Occup= 0
   1         0.72363
   2         0.18698
   3        -1.29342
   4        -0.00062
   5         0.00056
   6         0.55709
   7         0.72338
   8         0.72449
Sym=   A
Ene=   0.74265
Spin=  Alpha
Occup= 0
   1         0.58736
   2         0.00013
   3        -0.00090
   4         0.96704
   5        -0.43971
   6         0.00031
   7         0.41832
   8        -1.00414
Sym=   A
Ene=   0.74272
Spin=  Alpha
Occup= 0
   1        -0.82116
   2         0.00004
   3        -0.00029
   4        -0.43967
   5        -0.96695
   6         0.00012
   7         0.91910
   8        -0.09744
Sym=   A
Ene=  -15.30360
Spin=  Beta
Occup= 1
   1        -0.00681
   2         0.99334
   3         0.03241
   4        -0.00000
   5         0.00000
   6        -0.00499
   7        -0.00681
   8        -0.00681
Sym=   A
Ene=  -1.09463
Spin=  Beta
Occup= 1
   1        -0.16062
   2         0.21951
   3        -0.73209
   4         0.00009
   5        -0.00006
   6         0.13611
   7        -0.16070
   8        -0.16021
Sym=   A
Ene=  -0.57797
Spin=  Beta
Occup= 1
   1        -0.40846
   2         0.00003
   3        -0.00017
   4         0.25588
   5         0.53387
   6         0.00004
   7         0.44648
   8        -0.03788
Sym=   A
Ene=  -0.57791
Spin=  Beta
Occup= 1
   1         0.27953
   2         0.00014
   3        -0.00067
   4        -0.53434
   5         0.25610
   6         0.00033
   7         0.21392
   8        -0.49294
Sym=   A
Ene=  -0.35241
Spin=  Beta
Occup= 1
   1         0.11775
   2         0.08741
   3        -0.43956
   4         0.00018
   5        -0.00016
   6        -0.89760
   7         0.11778
   8         0.11728
Sym=   A
Ene=   0.65004
Spin=  Beta
Occup= 0
   1         0.72445
   2         0.18712
   3        -1.29378
   4         0.00222
   5        -0.00167
   6         0.55808
   7         0.72491
   8         0.72130
Sym=   A
Ene=   0.74277
Spin=  Beta
Occup= 0
   1         0.83686
   2         0.00008
   3        -0.00057
   4         0.46685
   5         0.95538
   6         0.00020
   7        -0.90580
   8         0.06994
Sym=   A
Ene=   0.74283
Spin=  Beta
Occup= 0
   1        -0.56171
   2         0.00044
   3        -0.00311
   4        -0.95511
   5         0.46672
   6         0.00107
   7        -0.44112
   8         1.00813
