[Molden Format]
made by Quiqbox

[Atoms] (AU)
H    1    1         -1.5246       -0.8802       -0.4898
N    2    7          0.0           0.0           0.2099
H    3    1          0.0           1.7605       -0.4898
H    4    1          1.5246       -0.8802       -0.4898

[GTO]
1 0
S    3   1.0
         3.425250914                   0.1543289673
         0.6239137298                  0.5353281423
         0.168855404                   0.4446345422

2 0
S    3   1.0
        99.10616896                    0.1543289673
        18.05231239                    0.5353281423
         4.885660238                   0.4446345422
S    3   1.0
         3.780455879                  -0.09996722919
         0.8784966449                  0.3995128261
         0.2857143744                  0.7001154689
P    3   1.0
         3.780455879                   0.155916275
         0.8784966449                  0.6076837186
         0.2857143744                  0.3919573931

3 0
S    3   1.0
         3.425250914                   0.1543289673
         0.6239137298                  0.5353281423
         0.168855404                   0.4446345422

4 0
S    3   1.0
         3.425250914                   0.1543289673
         0.6239137298                  0.5353281423
         0.168855404                   0.4446345422

[MO]
Sym=   A
Ene=  -15.3028
Spin=  Alpha
Occup= 1
   1        -0.0068
   2         0.9933
   3         0.0324
   4         0.0
   5         0.0
   6        -0.005
   7        -0.0068
   8        -0.0068
Sym=   A
Ene=  -1.0946
Spin=  Alpha
Occup= 1
   1        -0.16
   2         0.2197
   3        -0.7331
   4         0.0
   5        -0.0
   6         0.1364
   7        -0.16
   8        -0.16
Sym=   A
Ene=  -0.5778
Spin=  Alpha
Occup= 1
   1        -0.3164
   2         0.0
   3        -0.0
   4         0.5572
   5        -0.2044
   6         0.0
   7        -0.17
   8         0.4864
Sym=   A
Ene=  -0.5778
Spin=  Alpha
Occup= 1
   1        -0.379
   2         0.0
   3        -0.0
   4         0.2044
   5         0.5572
   6        -0.0
   7         0.4635
   8        -0.0845
Sym=   A
Ene=  -0.3522
Spin=  Alpha
Occup= 1
   1         0.1171
   2         0.0873
   3        -0.4386
   4        -0.0
   5         0.0
   6        -0.898
   7         0.1171
   8         0.1171
Sym=   A
Ene=   0.6502
Spin=  Alpha
Occup= 0
   1         0.7238
   2         0.187
   3        -1.2935
   4        -0.0
   5         0.0001
   6         0.5574
   7         0.7237
   8         0.7238
Sym=   A
Ene=   0.743
Spin=  Alpha
Occup= 0
   1         0.8033
   2         0.0
   3        -0.0
   4         1.054
   5        -0.1341
   6         0.0
   7         0.1274
   8        -0.9307
Sym=   A
Ene=   0.743
Spin=  Alpha
Occup= 0
   1        -0.6108
   2         0.0
   3        -0.0001
   4        -0.1341
   5        -1.054
   6         0.0
   7         1.0012
   8        -0.3902
Sym=   A
Ene=  -15.3028
Spin=  Beta
Occup= 1
   1        -0.0068
   2         0.9933
   3         0.0324
   4        -0.0
   5         0.0
   6        -0.005
   7        -0.0068
   8        -0.0068
Sym=   A
Ene=  -1.0946
Spin=  Beta
Occup= 1
   1        -0.16
   2         0.2197
   3        -0.733
   4        -0.0
   5        -0.0
   6         0.1364
   7        -0.16
   8        -0.16
Sym=   A
Ene=  -0.5778
Spin=  Beta
Occup= 1
   1        -0.4462
   2         0.0
   3        -0.0
   4         0.3371
   5         0.4882
   6        -0.0
   7         0.4064
   8         0.0398
Sym=   A
Ene=  -0.5778
Spin=  Beta
Occup= 1
   1         0.2116
   2         0.0
   3        -0.0
   4        -0.4883
   5         0.3371
   6         0.0
   7         0.2806
   8        -0.4922
Sym=   A
Ene=  -0.3521
Spin=  Beta
Occup= 1
   1         0.1172
   2         0.0873
   3        -0.4387
   4         0.0
   5        -0.0
   6        -0.8979
   7         0.1172
   8         0.1172
Sym=   A
Ene=   0.6502
Spin=  Beta
Occup= 0
   1         0.7238
   2         0.187
   3        -1.2936
   4         0.0
   5         0.0
   6         0.5575
   7         0.7237
   8         0.7237
Sym=   A
Ene=   0.743
Spin=  Beta
Occup= 0
   1        -0.958
   2         0.0
   3        -0.0
   4        -1.0406
   5        -0.2154
   6         0.0
   7         0.2045
   8         0.7536
Sym=   A
Ene=   0.743
Spin=  Beta
Occup= 0
   1        -0.3169
   2         0.0
   3        -0.0001
   4         0.2154
   5        -1.0406
   6         0.0
   7         0.9882
   8        -0.6712
