[Molden Format]
made by Quiqbox

[Atoms] (AU)
X    1    X         -1.52463        -0.88023        -0.48982
X    2    X          0.00000         0.00000         0.20995
X    3    X          0.00000         1.76047        -0.48982
X    4    X          1.52463        -0.88023        -0.48982
H    5    1          0.70014         0.00000         0.00000
H    6    1         -0.70014         0.00000         0.00000

[GTO]
1 0
S    3   1.0
         3.425250914               0.1543289673
         0.6239137298              0.5353281423
         0.168855404               0.4446345422

2 0
S    3   1.0
         3.425250914               0.1543289673
         0.6239137298              0.5353281423
         0.168855404               0.4446345422

3 0
S    3   1.0
         3.425250914               0.1543289673
         0.6239137298              0.5353281423
         0.168855404               0.4446345422

4 0
S    3   1.0
         3.425250914               0.1543289673
         0.6239137298              0.5353281423
         0.168855404               0.4446345422

[MO]
Sym=   A
Ene=  -0.47269
Spin=  Alpha
Occup= 1
   1         0.15395
   2         0.77468
   3         0.10535
   4         0.15394
Sym=   A
Ene=   0.77487
Spin=  Alpha
Occup= 0
   1        -0.79949
   2         0.00003
   3         0.00005
   4         0.79941
Sym=   A
Ene=   0.85527
Spin=  Alpha
Occup= 0
   1        -0.47861
   2         0.06721
   3         0.90440
   4        -0.47872
Sym=   A
Ene=   1.24524
Spin=  Alpha
Occup= 0
   1        -0.66048
   2         1.20214
   3        -0.70650
   4        -0.66050
Sym=   A
Ene=  -0.47269
Spin=  Beta
Occup= 1
   1         0.15393
   2         0.77470
   3         0.10536
   4         0.15392
Sym=   A
Ene=   0.77488
Spin=  Beta
Occup= 0
   1        -0.79947
   2         0.00001
   3         0.00004
   4         0.79943
Sym=   A
Ene=   0.85527
Spin=  Beta
Occup= 0
   1        -0.47863
   2         0.06717
   3         0.90441
   4        -0.47869
Sym=   A
Ene=   1.24524
Spin=  Beta
Occup= 0
   1        -0.66050
   2         1.20213
   3        -0.70649
   4        -0.66050
