[Molden Format]
made by Quiqbox

[Atoms] (AU)
X    1    X         -0.6            -0.6            -0.6
X    2    X         -0.6            -0.6             0.6
X    3    X         -0.6             0.6            -0.6
X    4    X         -0.6             0.6             0.6
X    5    X          0.6            -0.6            -0.6
X    6    X          0.6            -0.6             0.6
X    7    X          0.6             0.6            -0.6
X    8    X          0.6             0.6             0.6
H    9    1          0.700144        0.0             0.0
H    10   1         -0.700144        0.0             0.0

[GTO]
1 0
S    3   1.0
         3.425250914                   0.1543289673
         0.6239137298                  0.5353281423
         0.168855404                   0.4446345422

2 0
S    3   1.0
         3.425250914                   0.1543289673
         0.6239137298                  0.5353281423
         0.168855404                   0.4446345422

3 0
S    3   1.0
         3.425250914                   0.1543289673
         0.6239137298                  0.5353281423
         0.168855404                   0.4446345422

4 0
S    3   1.0
         3.425250914                   0.1543289673
         0.6239137298                  0.5353281423
         0.168855404                   0.4446345422

5 0
S    3   1.0
         3.425250914                   0.1543289673
         0.6239137298                  0.5353281423
         0.168855404                   0.4446345422

6 0
S    3   1.0
         3.425250914                   0.1543289673
         0.6239137298                  0.5353281423
         0.168855404                   0.4446345422

7 0
S    3   1.0
         3.425250914                   0.1543289673
         0.6239137298                  0.5353281423
         0.168855404                   0.4446345422

8 0
S    3   1.0
         3.425250914                   0.1543289673
         0.6239137298                  0.5353281423
         0.168855404                   0.4446345422

[MO]
Sym=   A
Ene=  -0.534076
Spin=  Alpha
Occup= 2
   1         0.153562
   2         0.153562
   3         0.153562
   4         0.153562
   5         0.153562
   6         0.153562
   7         0.153562
   8         0.153562
Sym=   A
Ene=   0.638465
Spin=  Alpha
Occup= 0
   1         0.413637
   2         0.413637
   3         0.413637
   4         0.413637
   5        -0.413637
   6        -0.413637
   7        -0.413637
   8        -0.413637
Sym=   A
Ene=   0.833764
Spin=  Alpha
Occup= 0
   1         0.407064
   2         0.420107
   3        -0.420107
   4        -0.407064
   5         0.407063
   6         0.420107
   7        -0.420107
   8        -0.407063
Sym=   A
Ene=   0.833764
Spin=  Alpha
Occup= 0
   1         0.420108
   2        -0.407064
   3         0.407064
   4        -0.420107
   5         0.420107
   6        -0.407063
   7         0.407063
   8        -0.420107
Sym=   A
Ene=   2.185901
Spin=  Alpha
Occup= 0
   1         0.854145
   2        -0.95327
   3         0.95327
   4        -0.854145
   5        -0.854145
   6         0.95327
   7        -0.95327
   8         0.854145
Sym=   A
Ene=   2.185901
Spin=  Alpha
Occup= 0
   1         0.95327
   2         0.854145
   3        -0.854145
   4        -0.95327
   5        -0.95327
   6        -0.854145
   7         0.854145
   8         0.95327
Sym=   A
Ene=   2.272331
Spin=  Alpha
Occup= 0
   1         0.905066
   2        -0.905066
   3        -0.905066
   4         0.905066
   5         0.905065
   6        -0.905065
   7        -0.905065
   8         0.905065
Sym=   A
Ene=   4.331652
Spin=  Alpha
Occup= 0
   1         1.58719
   2        -1.58719
   3        -1.58719
   4         1.58719
   5        -1.587191
   6         1.587191
   7         1.587191
   8        -1.587191
