[Molden Format]
made by Quiqbox

[Atoms] (AU)
X    1    X         -1.52       -0.88       -0.49
X    2    X          0.0         0.0         0.21
X    3    X          0.0         1.76       -0.49
X    4    X          1.52       -0.88       -0.49
H    5    1          0.7         0.0         0.0
H    6    1         -0.7         0.0         0.0

[GTO]
1 0
S    2   1.0
         1.309756377                   0.4301284983
         0.2331359749                  0.6789135305

2 0
S    2   1.0
         1.309756377                   0.4301284983
         0.2331359749                  0.6789135305

3 0
S    2   1.0
         1.309756377                   0.4301284983
         0.2331359749                  0.6789135305

4 0
S    2   1.0
         1.309756377                   0.4301284983
         0.2331359749                  0.6789135305

[MO]
Sym=   A
Ene=  -0.49
Spin=  Alpha
Occup= 1
   1         0.14
   2         0.79
   3         0.09
   4         0.14
Sym=   A
Ene=   0.74
Spin=  Alpha
Occup= 0
   1        -0.8
   2         0.0
   3         0.0
   4         0.8
Sym=   A
Ene=   0.82
Spin=  Alpha
Occup= 0
   1        -0.48
   2         0.07
   3         0.9
   4        -0.48
Sym=   A
Ene=   1.19
Spin=  Alpha
Occup= 0
   1        -0.66
   2         1.2
   3        -0.72
   4        -0.66
Sym=   A
Ene=  -0.49
Spin=  Beta
Occup= 1
   1         0.14
   2         0.79
   3         0.09
   4         0.14
Sym=   A
Ene=   0.74
Spin=  Beta
Occup= 0
   1         0.8
   2         0.0
   3         0.0
   4        -0.8
Sym=   A
Ene=   0.82
Spin=  Beta
Occup= 0
   1        -0.48
   2         0.07
   3         0.9
   4        -0.48
Sym=   A
Ene=   1.19
Spin=  Beta
Occup= 0
   1        -0.66
   2         1.2
   3        -0.72
   4        -0.66
