[Molden Format]
made by Quiqbox

[Atoms] (AU)
X    1    X         -0.6           -0.6           -0.6
X    2    X         -0.6           -0.6            0.6
X    3    X         -0.6            0.6           -0.6
X    4    X         -0.6            0.6            0.6
X    5    X          0.6           -0.6           -0.6
X    6    X          0.6           -0.6            0.6
X    7    X          0.6            0.6           -0.6
X    8    X          0.6            0.6            0.6
N    9    7          0.0            0.0            0.20995
H    10   1          0.0            1.76047       -0.48982
H    11   1          1.52463       -0.88023       -0.48982
H    12   1         -1.52463       -0.88023       -0.48982

[GTO]
1 0
S    2   1.0
         1.309756377                   0.4301284983
         0.2331359749                  0.6789135305

2 0
S    2   1.0
         1.309756377                   0.4301284983
         0.2331359749                  0.6789135305

3 0
S    2   1.0
         1.309756377                   0.4301284983
         0.2331359749                  0.6789135305

4 0
S    2   1.0
         1.309756377                   0.4301284983
         0.2331359749                  0.6789135305

5 0
S    2   1.0
         1.309756377                   0.4301284983
         0.2331359749                  0.6789135305

6 0
S    2   1.0
         1.309756377                   0.4301284983
         0.2331359749                  0.6789135305

7 0
S    2   1.0
         1.309756377                   0.4301284983
         0.2331359749                  0.6789135305

8 0
S    2   1.0
         1.309756377                   0.4301284983
         0.2331359749                  0.6789135305

[MO]
Sym=   A
Ene=  -2.38791
Spin=  Alpha
Occup= 1
   1         0.04356
   2         0.25359
   3         0.05472
   4         0.25151
   5         0.06599
   6         0.24613
   7         0.06527
   8         0.21697
Sym=   A
Ene=  -0.82382
Spin=  Alpha
Occup= 1
   1         0.13557
   2         0.22644
   3         0.27382
   4         0.71595
   5        -0.62178
   6        -0.62554
   7        -0.06927
   8        -0.07836
Sym=   A
Ene=  -0.77913
Spin=  Alpha
Occup= 1
   1         0.39244
   2         0.77825
   3        -0.20996
   4        -0.16539
   5         0.00909
   6         0.19188
   7        -0.48413
   8        -0.56662
Sym=   A
Ene=  -0.62407
Spin=  Alpha
Occup= 1
   1         0.50919
   2        -0.18259
   3         0.46856
   4        -0.29582
   5         0.37939
   6        -0.47765
   7         0.34527
   8        -0.48103
Sym=   A
Ene=   0.61534
Spin=  Alpha
Occup= 1
   1         0.74862
   2         0.65794
   3         0.03639
   4        -1.47703
   5        -1.46598
   6         0.00133
   7         0.69358
   8         0.81535
Sym=   A
Ene=   1.23815
Spin=  Alpha
Occup= 0
   1         1.13232
   2        -0.27524
   3        -1.26151
   4         0.34594
   5         0.53046
   6        -1.24275
   7        -0.40098
   8         1.17948
Sym=   A
Ene=   1.24085
Spin=  Alpha
Occup= 0
   1         0.84971
   2        -1.38937
   3         0.85163
   4        -0.11977
   5        -0.37544
   6         0.96544
   7        -1.30709
   8         0.53731
Sym=   A
Ene=   2.95443
Spin=  Alpha
Occup= 0
   1         1.58426
   2        -1.52133
   3        -1.68773
   4         1.58167
   5        -1.54971
   6         1.52141
   7         1.67184
   8        -1.59928
Sym=   A
Ene=  -2.38791
Spin=  Beta
Occup= 1
   1         0.06599
   2         0.24614
   3         0.06527
   4         0.21697
   5         0.04355
   6         0.25359
   7         0.05472
   8         0.25151
Sym=   A
Ene=  -0.82382
Spin=  Beta
Occup= 1
   1         0.62174
   2         0.62562
   3         0.06916
   4         0.07826
   5        -0.13551
   6        -0.22628
   7        -0.27389
   8        -0.71596
Sym=   A
Ene=  -0.77914
Spin=  Beta
Occup= 1
   1         0.00895
   2         0.19178
   3        -0.48418
   4        -0.5666
   5         0.39243
   6         0.77832
   7        -0.20993
   8        -0.16523
Sym=   A
Ene=  -0.62406
Spin=  Beta
Occup= 1
   1         0.37942
   2        -0.4776
   3         0.34524
   4        -0.48107
   5         0.5092
   6        -0.18255
   7         0.46854
   8        -0.29588
Sym=   A
Ene=   0.61535
Spin=  Beta
Occup= 1
   1         1.4659
   2        -0.00112
   3        -0.69382
   4        -0.81527
   5        -0.74848
   6        -0.65821
   7        -0.0362
   8         1.47701
Sym=   A
Ene=   1.23814
Spin=  Beta
Occup= 0
   1         0.53212
   2        -1.24695
   3        -0.39528
   4         1.17711
   5         1.12859
   6        -0.2692
   7        -1.26521
   8         0.34649
Sym=   A
Ene=   1.24085
Spin=  Beta
Occup= 0
   1         0.3734
   2        -0.96
   3         1.3087
   4        -0.54261
   5        -0.85477
   6         1.39042
   7        -0.84613
   8         0.11855
Sym=   A
Ene=   2.95442
Spin=  Beta
Occup= 0
   1         1.54972
   2        -1.52141
   3        -1.67184
   4         1.59928
   5        -1.58427
   6         1.52133
   7         1.68772
   8        -1.58167
