[Molden Format]
made by Quiqbox

[Atoms] (AU)
H    1    1         -1.52463        -0.88023        -0.48982
N    2    7          0.00000         0.00000         0.20995
H    3    1          0.00000         1.76047        -0.48982
H    4    1          1.52463        -0.88023        -0.48982

[GTO]
1 0
S    2   1.0
         1.309756377               0.4301284983
         0.2331359749              0.6789135305

2 0
S    2   1.0
        37.89647534                0.4301284983
         6.745553507               0.6789135305
S    2   1.0
         1.461088772               0.0494717692
         0.3705706944              0.9637824081
P    2   1.0
         1.461088772               0.5115407076
         0.3705706944              0.6128198961

3 0
S    2   1.0
         1.309756377               0.4301284983
         0.2331359749              0.6789135305

4 0
S    2   1.0
         1.309756377               0.4301284983
         0.2331359749              0.6789135305

[MO]
Sym=   A
Ene=  -14.81454
Spin=  Alpha
Occup= 2
   1        -0.01513
   2         0.98412
   3         0.06737
   4         0.00000
   5         0.00000
   6        -0.00913
   7        -0.01513
   8        -0.01513
Sym=   A
Ene=  -1.08101
Spin=  Alpha
Occup= 2
   1        -0.17154
   2         0.24874
   3        -0.71472
   4         0.00000
   5        -0.00000
   6         0.13472
   7        -0.17154
   8        -0.17154
Sym=   A
Ene=  -0.56846
Spin=  Alpha
Occup= 2
   1        -0.43745
   2         0.00000
   3        -0.00000
   4         0.58012
   5        -0.00219
   6         0.00000
   7        -0.00191
   8         0.43936
Sym=   A
Ene=  -0.56846
Spin=  Alpha
Occup= 2
   1        -0.25477
   2         0.00000
   3        -0.00001
   4         0.00219
   5         0.58013
   6         0.00001
   7         0.50623
   8        -0.25145
Sym=   A
Ene=  -0.32901
Spin=  Alpha
Occup= 2
   1         0.13083
   2         0.11226
   3        -0.47224
   4         0.00000
   5        -0.00001
   6        -0.88603
   7         0.13084
   8         0.13083
Sym=   A
Ene=   0.66561
Spin=  Alpha
Occup= 0
   1         0.72390
   2         0.24174
   3        -1.30827
   4         0.00000
   5         0.00009
   6         0.57688
   7         0.72376
   8         0.72390
Sym=   A
Ene=   0.78386
Spin=  Alpha
Occup= 0
   1        -0.49247
   2         0.00002
   3        -0.00012
   4         0.00541
   5        -1.06429
   6         0.00006
   7         0.99389
   8        -0.50122
Sym=   A
Ene=   0.78387
Spin=  Alpha
Occup= 0
   1        -0.86319
   2         0.00000
   3        -0.00000
   4        -1.06429
   5        -0.00541
   6         0.00000
   7         0.00505
   8         0.85814
