[Molden Format]
made by Quiqbox

[Atoms] (AU)
H    1    1         -1.52463       -0.88023       -0.48982
N    2    7          0.00000        0.00000        0.20995
H    3    1          0.00000        1.76047       -0.48982
H    4    1          1.52463       -0.88023       -0.48982

[GTO]
1 0
S    3   1.0
         3.425250914                   0.1543289673
         0.6239137298                  0.5353281423
         0.168855404                   0.4446345422

2 0
S    3   1.0
        99.10616896                    0.1543289673
        18.05231239                    0.5353281423
         4.885660238                   0.4446345422
S    3   1.0
         3.780455879                  -0.09996722919
         0.8784966449                  0.3995128261
         0.2857143744                  0.7001154689
P    3   1.0
         3.780455879                   0.155916275
         0.8784966449                  0.6076837186
         0.2857143744                  0.3919573931

3 0
S    3   1.0
         3.425250914                   0.1543289673
         0.6239137298                  0.5353281423
         0.168855404                   0.4446345422

4 0
S    3   1.0
         3.425250914                   0.1543289673
         0.6239137298                  0.5353281423
         0.168855404                   0.4446345422

[MO]
Sym=   A
Ene=  -15.30279
Spin=  Alpha
Occup= 1
   1        -0.00681
   2         0.99333
   3         0.03241
   4         0.00000
   5         0.00000
   6        -0.00500
   7        -0.00681
   8        -0.00681
Sym=   A
Ene=  -1.09462
Spin=  Alpha
Occup= 1
   1        -0.15995
   2         0.21967
   3        -0.73311
   4         0.00000
   5        -0.00001
   6         0.13643
   7        -0.15996
   8        -0.15996
Sym=   A
Ene=  -0.57777
Spin=  Alpha
Occup= 1
   1        -0.31639
   2         0.00000
   3        -0.00001
   4         0.55717
   5        -0.20435
   6         0.00002
   7        -0.16999
   8         0.48640
Sym=   A
Ene=  -0.57776
Spin=  Alpha
Occup= 1
   1        -0.37896
   2         0.00000
   3        -0.00000
   4         0.20436
   5         0.55718
   6        -0.00001
   7         0.46347
   8        -0.08453
Sym=   A
Ene=  -0.35217
Spin=  Alpha
Occup= 1
   1         0.11711
   2         0.08726
   3        -0.43859
   4        -0.00001
   5         0.00000
   6        -0.89800
   7         0.11711
   8         0.11714
Sym=   A
Ene=   0.65020
Spin=  Alpha
Occup= 0
   1         0.72378
   2         0.18702
   3        -1.29353
   4        -0.00002
   5         0.00008
   6         0.55736
   7         0.72369
   8         0.72380
Sym=   A
Ene=   0.74296
Spin=  Alpha
Occup= 0
   1         0.80333
   2         0.00000
   3        -0.00004
   4         1.05404
   5        -0.13413
   6         0.00000
   7         0.12741
   8        -0.93067
Sym=   A
Ene=   0.74297
Spin=  Alpha
Occup= 0
   1        -0.61084
   2         0.00001
   3        -0.00011
   4        -0.13412
   5        -1.05403
   6         0.00004
   7         1.00119
   8        -0.39018
Sym=   A
Ene=  -15.30277
Spin=  Beta
Occup= 1
   1        -0.00681
   2         0.99333
   3         0.03241
   4        -0.00000
   5         0.00000
   6        -0.00500
   7        -0.00681
   8        -0.00681
Sym=   A
Ene=  -1.09456
Spin=  Beta
Occup= 1
   1        -0.16002
   2         0.21965
   3        -0.73300
   4        -0.00000
   5        -0.00000
   6         0.13637
   7        -0.16003
   8        -0.16001
Sym=   A
Ene=  -0.57776
Spin=  Beta
Occup= 1
   1        -0.44617
   2         0.00000
   3        -0.00001
   4         0.33711
   5         0.48825
   6        -0.00000
   7         0.40637
   8         0.03980
Sym=   A
Ene=  -0.57776
Spin=  Beta
Occup= 1
   1         0.21164
   2         0.00000
   3        -0.00002
   4        -0.48826
   5         0.33712
   6         0.00002
   7         0.28058
   8        -0.49219
Sym=   A
Ene=  -0.35214
Spin=  Beta
Occup= 1
   1         0.11721
   2         0.08728
   3        -0.43872
   4         0.00001
   5        -0.00001
   6        -0.89794
   7         0.11721
   8         0.11718
Sym=   A
Ene=   0.65021
Spin=  Beta
Occup= 0
   1         0.72377
   2         0.18703
   3        -1.29355
   4         0.00002
   5         0.00004
   6         0.55747
   7         0.72368
   8         0.72375
Sym=   A
Ene=   0.74297
Spin=  Beta
Occup= 0
   1        -0.95804
   2         0.00001
   3        -0.00004
   4        -1.04056
   5        -0.21537
   6         0.00001
   7         0.20454
   8         0.75356
Sym=   A
Ene=   0.74298
Spin=  Beta
Occup= 0
   1        -0.31694
   2         0.00001
   3        -0.00007
   4         0.21536
   5        -1.04056
   6         0.00004
   7         0.98823
   8        -0.67119
