[Molden Format]
made by Quiqbox

[Atoms] (AU)
H    1    1         -0.70014         0.00000         0.00000
H    2    1          0.70014         0.00000         0.00000

[GTO]
1 0
S    2   1.0
         1.309756377               0.4301284983
         0.2331359749              0.6789135305

2 0
S    2   1.0
         1.309756377               0.4301284983
         0.2331359749              0.6789135305

[MO]
Sym=   A
Ene=  -0.56709
Spin=  Alpha
Occup= 1
   1         0.54999
   2         0.54826
Sym=   A
Ene=   0.68391
Spin=  Alpha
Occup= 0
   1        -1.20902
   2         1.20981
Sym=   A
Ene=  -0.56709
Spin=  Beta
Occup= 1
   1         0.54826
   2         0.54999
Sym=   A
Ene=   0.68391
Spin=  Beta
Occup= 0
   1        -1.20981
   2         1.20902
