[Molden Format]
made by Quiqbox

[Atoms] (AU)
X    1    X         -0.6           -0.6           -0.6
X    2    X         -0.6           -0.6            0.6
X    3    X         -0.6            0.6           -0.6
X    4    X         -0.6            0.6            0.6
X    5    X          0.6           -0.6           -0.6
X    6    X          0.6           -0.6            0.6
X    7    X          0.6            0.6           -0.6
X    8    X          0.6            0.6            0.6
H    9    1          0.86644        0.0            0.0
F    10   9         -0.86644        0.0            0.0

[GTO]
1 0
S    2   1.0
         1.309756377                   0.4301284983
         0.2331359749                  0.6789135305

2 0
S    2   1.0
         1.309756377                   0.4301284983
         0.2331359749                  0.6789135305

3 0
S    2   1.0
         1.309756377                   0.4301284983
         0.2331359749                  0.6789135305

4 0
S    2   1.0
         1.309756377                   0.4301284983
         0.2331359749                  0.6789135305

5 0
S    2   1.0
         1.309756377                   0.4301284983
         0.2331359749                  0.6789135305

6 0
S    2   1.0
         1.309756377                   0.4301284983
         0.2331359749                  0.6789135305

7 0
S    2   1.0
         1.309756377                   0.4301284983
         0.2331359749                  0.6789135305

8 0
S    2   1.0
         1.309756377                   0.4301284983
         0.2331359749                  0.6789135305

[MO]
Sym=   A
Ene=  -3.66156
Spin=  Alpha
Occup= 1
   1         0.39001
   2         0.39001
   3         0.39001
   4         0.39001
   5        -0.1607
   6        -0.1607
   7        -0.1607
   8        -0.1607
Sym=   A
Ene=  -1.19889
Spin=  Alpha
Occup= 1
   1         1.18354
   2        -0.00014
   3         0.00013
   4        -1.18353
   5        -0.20163
   6         2.0e-5
   7        -2.0e-5
   8         0.20162
Sym=   A
Ene=  -1.19889
Spin=  Alpha
Occup= 1
   1         0.00013
   2         1.18353
   3        -1.18353
   4        -0.00013
   5        -2.0e-5
   6        -0.20162
   7         0.20162
   8         2.0e-5
Sym=   A
Ene=  -0.4208
Spin=  Alpha
Occup= 1
   1         0.20659
   2         0.2066
   3         0.2066
   4         0.20661
   5        -0.41104
   6        -0.41106
   7        -0.41105
   8        -0.41107
Sym=   A
Ene=   0.58529
Spin=  Alpha
Occup= 1
   1         1.48933
   2        -1.48931
   3        -1.48932
   4         1.4893
   5         0.14223
   6        -0.14227
   7        -0.14226
   8         0.1423
Sym=   A
Ene=   1.3853
Spin=  Alpha
Occup= 0
   1         1.0e-5
   2         0.7497
   3        -0.74968
   4        -2.0e-5
   5        -2.0e-5
   6        -1.38641
   7         1.38641
   8         3.0e-5
Sym=   A
Ene=   1.3853
Spin=  Alpha
Occup= 0
   1         0.74965
   2         3.0e-5
   3         5.0e-5
   4        -0.74973
   5        -1.38641
   6         2.0e-5
   7        -3.0e-5
   8         1.38641
Sym=   A
Ene=   3.11664
Spin=  Alpha
Occup= 0
   1         1.06414
   2        -1.06414
   3        -1.06414
   4         1.06414
   5        -1.82489
   6         1.82488
   7         1.82489
   8        -1.82488
Sym=   A
Ene=  -3.66155
Spin=  Beta
Occup= 1
   1         0.39001
   2         0.39001
   3         0.39001
   4         0.39001
   5        -0.1607
   6        -0.1607
   7        -0.1607
   8        -0.1607
Sym=   A
Ene=  -1.19888
Spin=  Beta
Occup= 1
   1         2.0e-5
   2        -1.18352
   3         1.18352
   4        -1.0e-5
   5        -0.0
   6         0.2016
   7        -0.2016
   8         0.0
Sym=   A
Ene=  -1.19888
Spin=  Beta
Occup= 1
   1         1.18352
   2         2.0e-5
   3        -1.0e-5
   4        -1.18353
   5        -0.2016
   6        -0.0
   7         0.0
   8         0.20161
Sym=   A
Ene=  -0.42081
Spin=  Beta
Occup= 1
   1         0.20661
   2         0.2066
   3         0.2066
   4         0.20659
   5        -0.41107
   6        -0.41105
   7        -0.41106
   8        -0.41105
Sym=   A
Ene=   0.58531
Spin=  Beta
Occup= 1
   1         1.48926
   2        -1.48928
   3        -1.48927
   4         1.4893
   5         0.14237
   6        -0.14232
   7        -0.14234
   8         0.14229
Sym=   A
Ene=   1.38529
Spin=  Beta
Occup= 0
   1         0.74975
   2         5.0e-5
   3        -0.00014
   4        -0.74966
   5        -1.38641
   6        -0.00017
   7         0.00018
   8         1.38641
Sym=   A
Ene=   1.38529
Spin=  Beta
Occup= 0
   1         8.0e-5
   2        -0.7497
   3         0.74972
   4        -0.0001
   5        -0.00017
   6         1.38641
   7        -1.38641
   8         0.00017
Sym=   A
Ene=   3.11662
Spin=  Beta
Occup= 0
   1         1.06419
   2        -1.06419
   3        -1.06419
   4         1.06419
   5        -1.82488
   6         1.82488
   7         1.82488
   8        -1.82489
