[Molden Format]
made by Quiqbox

[Atoms] (AU)
X    1    X         -0.6         -0.6         -0.6
X    2    X         -0.6         -0.6          0.6
X    3    X         -0.6          0.6         -0.6
X    4    X         -0.6          0.6          0.6
X    5    X          0.6         -0.6         -0.6
X    6    X          0.6         -0.6          0.6
X    7    X          0.6          0.6         -0.6
X    8    X          0.6          0.6          0.6
H    9    1          0.7          0.0          0.0
H    10   1         -0.7          0.0          0.0

[GTO]
1 0
S    2   1.0
         1.309756377                   0.4301284983
         0.2331359749                  0.6789135305

2 0
S    2   1.0
         1.309756377                   0.4301284983
         0.2331359749                  0.6789135305

3 0
S    2   1.0
         1.309756377                   0.4301284983
         0.2331359749                  0.6789135305

4 0
S    2   1.0
         1.309756377                   0.4301284983
         0.2331359749                  0.6789135305

5 0
S    2   1.0
         1.309756377                   0.4301284983
         0.2331359749                  0.6789135305

6 0
S    2   1.0
         1.309756377                   0.4301284983
         0.2331359749                  0.6789135305

7 0
S    2   1.0
         1.309756377                   0.4301284983
         0.2331359749                  0.6789135305

8 0
S    2   1.0
         1.309756377                   0.4301284983
         0.2331359749                  0.6789135305

[MO]
Sym=   A
Ene=  -0.542
Spin=  Alpha
Occup= 2
   1         0.154
   2         0.154
   3         0.154
   4         0.154
   5         0.154
   6         0.154
   7         0.154
   8         0.154
Sym=   A
Ene=   0.579
Spin=  Alpha
Occup= 0
   1         0.414
   2         0.414
   3         0.414
   4         0.414
   5        -0.414
   6        -0.414
   7        -0.414
   8        -0.414
Sym=   A
Ene=   0.792
Spin=  Alpha
Occup= 0
   1         0.43
   2         0.397
   3        -0.397
   4        -0.43
   5         0.43
   6         0.397
   7        -0.397
   8        -0.43
Sym=   A
Ene=   0.792
Spin=  Alpha
Occup= 0
   1         0.397
   2        -0.43
   3         0.43
   4        -0.397
   5         0.397
   6        -0.43
   7         0.43
   8        -0.397
Sym=   A
Ene=   2.073
Spin=  Alpha
Occup= 0
   1         0.786
   2        -1.001
   3         1.001
   4        -0.786
   5        -0.786
   6         1.001
   7        -1.001
   8         0.786
Sym=   A
Ene=   2.073
Spin=  Alpha
Occup= 0
   1         1.001
   2         0.786
   3        -0.786
   4        -1.001
   5        -1.001
   6        -0.786
   7         0.786
   8         1.001
Sym=   A
Ene=   2.181
Spin=  Alpha
Occup= 0
   1         0.9
   2        -0.9
   3        -0.9
   4         0.9
   5         0.9
   6        -0.9
   7        -0.9
   8         0.9
Sym=   A
Ene=   3.695
Spin=  Alpha
Occup= 0
   1         1.594
   2        -1.594
   3        -1.594
   4         1.594
   5        -1.594
   6         1.594
   7         1.594
   8        -1.594
