[Molden Format]
made by Quiqbox

[Atoms] (AU)
X    1    X           -0.60000        -0.60000        -0.60000
X    2    X           -0.60000        -0.60000         0.60000
X    3    X           -0.60000         0.60000        -0.60000
X    4    X           -0.60000         0.60000         0.60000
X    5    X            0.60000        -0.60000        -0.60000
X    6    X            0.60000        -0.60000         0.60000
X    7    X            0.60000         0.60000        -0.60000
X    8    X            0.60000         0.60000         0.60000
N    9    7            0.00000         0.00000         0.20995
H    10   1            0.00000         1.76047        -0.48982
H    11   1            1.52463        -0.88023        -0.48982
H    12   1           -1.52463        -0.88023        -0.48982

[GTO]
1 0
S    3   1.0
         3.42525         0.15433
         0.62391         0.53533
         0.16886         0.44463

2 0
S    3   1.0
         3.42525         0.15433
         0.62391         0.53533
         0.16886         0.44463

3 0
S    3   1.0
         3.42525         0.15433
         0.62391         0.53533
         0.16886         0.44463

4 0
S    3   1.0
         3.42525         0.15433
         0.62391         0.53533
         0.16886         0.44463

5 0
S    3   1.0
         3.42525         0.15433
         0.62391         0.53533
         0.16886         0.44463

6 0
S    3   1.0
         3.42525         0.15433
         0.62391         0.53533
         0.16886         0.44463

7 0
S    3   1.0
         3.42525         0.15433
         0.62391         0.53533
         0.16886         0.44463

8 0
S    3   1.0
         3.42525         0.15433
         0.62391         0.53533
         0.16886         0.44463

[MO]
Sym=   A
Ene=  -2.35377
Spin=  Alpha
Occup= 1
   1     0.05376
   2     0.24752
   3     0.06382
   4     0.24154
   5     0.07621
   6     0.23717
   7     0.07574
   8     0.20756
Sym=   A
Ene=  -0.74989
Spin=  Alpha
Occup= 1
   1     0.14342
   2     0.26099
   3     0.28331
   4     0.69391
   5    -0.61652
   6    -0.62562
   7    -0.09180
   8    -0.08623
Sym=   A
Ene=  -0.71097
Spin=  Alpha
Occup= 1
   1     0.39461
   2     0.77014
   3    -0.21849
   4    -0.19247
   5     0.03229
   6     0.20419
   7    -0.48853
   8    -0.55176
Sym=   A
Ene=  -0.54283
Spin=  Alpha
Occup= 1
   1     0.51610
   2    -0.19511
   3     0.46179
   4    -0.30485
   5     0.37628
   6    -0.48045
   7     0.34402
   8    -0.47921
Sym=   A
Ene=   0.71933
Spin=  Alpha
Occup= 1
   1     0.70003
   2     0.76919
   3    -0.02324
   4    -1.50028
   5    -1.38976
   6    -0.13600
   7     0.72154
   8     0.86712
Sym=   A
Ene=   1.34150
Spin=  Alpha
Occup= 0
   1     0.36487
   2    -1.11276
   3     1.29864
   4    -0.35926
   5    -0.66118
   6     1.39385
   7    -0.98511
   8     0.07023
Sym=   A
Ene=   1.34475
Spin=  Alpha
Occup= 0
   1     1.36463
   2    -0.82030
   3    -0.79491
   4     0.27120
   5     0.35468
   6    -0.75645
   7    -0.92212
   8     1.31479
Sym=   A
Ene=   3.40843
Spin=  Alpha
Occup= 0
   1     1.60703
   2    -1.50004
   3    -1.68797
   4     1.54603
   5    -1.57815
   6     1.50325
   7     1.67360
   8    -1.56313
Sym=   A
Ene=  -2.35377
Spin=  Beta
Occup= 1
   1     0.07620
   2     0.23718
   3     0.07574
   4     0.20756
   5     0.05376
   6     0.24752
   7     0.06382
   8     0.24154
Sym=   A
Ene=  -0.74989
Spin=  Beta
Occup= 1
   1     0.61651
   2     0.62564
   3     0.09177
   4     0.08621
   5    -0.14341
   6    -0.26096
   7    -0.28333
   8    -0.69391
Sym=   A
Ene=  -0.71098
Spin=  Beta
Occup= 1
   1     0.03226
   2     0.20416
   3    -0.48855
   4    -0.55175
   5     0.39460
   6     0.77016
   7    -0.21848
   8    -0.19243
Sym=   A
Ene=  -0.54283
Spin=  Beta
Occup= 1
   1     0.37629
   2    -0.48043
   3     0.34401
   4    -0.47922
   5     0.51610
   6    -0.19509
   7     0.46179
   8    -0.30486
Sym=   A
Ene=   0.71934
Spin=  Beta
Occup= 1
   1     1.38974
   2     0.13604
   3    -0.72160
   4    -0.86709
   5    -0.69998
   6    -0.76925
   7     0.02328
   8     1.50027
Sym=   A
Ene=   1.34150
Spin=  Beta
Occup= 0
   1     0.66150
   2    -1.39441
   3     0.98439
   4    -0.06928
   5    -0.36388
   6     1.11211
   7    -1.29924
   8     0.35953
Sym=   A
Ene=   1.34475
Spin=  Beta
Occup= 0
   1     0.35416
   2    -0.75541
   3    -0.92284
   4     1.31485
   5     1.36492
   6    -0.82112
   7    -0.79393
   8     0.27090
Sym=   A
Ene=   3.40843
Spin=  Beta
Occup= 0
   1     1.57815
   2    -1.50325
   3    -1.67360
   4     1.56313
   5    -1.60704
   6     1.50004
   7     1.68797
   8    -1.54603
