[Molden Format]
made by Quiqbox

[Atoms] (AU)
H    1    1         -1.52463       -0.88023       -0.48982
N    2    7          0.0            0.0            0.20995
H    3    1          0.0            1.76047       -0.48982
H    4    1          1.52463       -0.88023       -0.48982

[GTO]
1 0
S    2   1.0
         1.309756377                   0.4301284983
         0.2331359749                  0.6789135305

2 0
S    2   1.0
        37.89647534                    0.4301284983
         6.745553507                   0.6789135305
S    2   1.0
         1.461088772                   0.0494717692
         0.3705706944                  0.9637824081
P    2   1.0
         1.461088772                   0.5115407076
         0.3705706944                  0.6128198961

3 0
S    2   1.0
         1.309756377                   0.4301284983
         0.2331359749                  0.6789135305

4 0
S    2   1.0
         1.309756377                   0.4301284983
         0.2331359749                  0.6789135305

[MO]
Sym=   A
Ene=  -14.81455
Spin=  Alpha
Occup= 2
   1        -0.01513
   2         0.98412
   3         0.06737
   4        -0.0
   5         0.0
   6        -0.00913
   7        -0.01513
   8        -0.01513
Sym=   A
Ene=  -1.08103
Spin=  Alpha
Occup= 2
   1        -0.17153
   2         0.24875
   3        -0.71474
   4         0.0
   5        -0.0
   6         0.13473
   7        -0.17154
   8        -0.17153
Sym=   A
Ene=  -0.56847
Spin=  Alpha
Occup= 2
   1         0.43842
   2         0.0
   3        -0.0
   4        -0.58014
   5        -4.0e-5
   6        -0.0
   7        -3.0e-5
   8        -0.43838
Sym=   A
Ene=  -0.56847
Spin=  Alpha
Occup= 2
   1        -0.25309
   2         0.0
   3        -1.0e-5
   4        -4.0e-5
   5         0.58013
   6        -1.0e-5
   7         0.50622
   8        -0.25314
Sym=   A
Ene=  -0.32899
Spin=  Alpha
Occup= 2
   1         0.13089
   2         0.11228
   3        -0.47233
   4        -0.0
   5         0.0
   6        -0.88599
   7         0.13088
   8         0.13089
Sym=   A
Ene=   0.6656
Spin=  Alpha
Occup= 0
   1         0.72386
   2         0.24173
   3        -1.30823
   4         0.0
   5         4.0e-5
   6         0.57694
   7         0.72381
   8         0.72386
Sym=   A
Ene=   0.78385
Spin=  Alpha
Occup= 0
   1        -0.86065
   2         0.0
   3        -0.0
   4        -1.0643
   5         7.0e-5
   6         0.0
   7        -7.0e-5
   8         0.86071
Sym=   A
Ene=   0.78385
Spin=  Alpha
Occup= 0
   1        -0.49694
   2         1.0e-5
   3        -7.0e-5
   4        -7.0e-5
   5        -1.0643
   6         2.0e-5
   7         0.99387
   8        -0.49682
